Executable      : siesta
Version         : 5.2.1
Architecture    : x86_64
Compiler version: GNU-13.3.0
Compiler flags  : -march=nocona -mtune=haswell -ftree-vectorize -fPIC -fstack-protector-strong -fno-plt -O2 -ffunction-sections -pipe -isystem <prefix>/include -I<prefix>/_build_env/include -fdebug-prefix-map=<prefix>/work=/usr/local/src/conda/siesta-5.2.1 -fdebug-prefix-map=<prefix>=/usr/local/src/conda-prefix -I<prefix>/lib -fallow-argument-mismatch -O3
Parallelisations: none
NetCDF support
NetCDF-4 support
Lua support
DFT-D3 support

Runtime information:
* Directory : /home/samba/homes/convidat/Desktop/input_example_1
* Running in serial mode.
>> Start of run:  26-MAR-2025  17:23:43

                           *********************** 
                           *  WELCOME TO SIESTA  * 
                           *********************** 

 NOTE: Siesta V5 introduces some new defaults for basis-set generation
 NOTE: which might lead to slightly different numerical results.
 NOTE: Please see the manual for full details and compatibility measures.


reinit: Reading from file xoc.fdf

reinit: -----------------------------------------------------------------------
reinit: System Name: H2 + O2 -> H2O2 reaction
reinit: -----------------------------------------------------------------------
reinit: System Label: xoc
reinit: -----------------------------------------------------------------------

initatom: Reading input for the pseudopotentials and atomic orbitals ----------
Species number:   1 Atomic number:    8 Label: O
Species number:   2 Atomic number:    1 Label: H

Ground state valence configuration (from tables):   2s02  2p04  3d00  4f00
Ground state valence configuration (from tables):   1s01  2p00  3d00  4f00

---- Processing specs for species: O
Reading pseudopotential information in formatted form from:
  O.psf

---- Processing specs for species: H
Reading pseudopotential information in unformatted form from:
  H.vps

---- Pseudopotential check for O 

Pseudopotential generated from a fully relativistic atomic calculation
There are spin-orbit semi-local pseudopotentials available

Pseudized shells:
2s( 2.00) rc: 1.14
2p( 4.00) rc: 1.14
3d( 0.00) rc: 1.14
4f( 0.00) rc: 1.14
Valence configuration for ps generation: (assumed as above)

---- Pseudopotential check for H 

Pseudized shells:
1s( 1.00) rc: 1.25
2p( 0.00) rc: 1.25
3d( 0.00) rc: 1.25
4f( 0.00) rc: 1.25
Valence configuration for ps generation: (assumed as above)
For O, standard SIESTA heuristics set lmxkb to 3
 (one more than the basis l, including polarization orbitals).
Use PS.lmax or PS.KBprojectors blocks to override.
For H, standard SIESTA heuristics set lmxkb to 2
 (one more than the basis l, including polarization orbitals).
Use PS.lmax or PS.KBprojectors blocks to override.

<basis_specs>
===============================================================================
O                    Z=   8    Mass=  15.999        Charge= 0.17977+309
Lmxo=2 Lmxkb= 3    BasisType=split      Semic=F
L=0  Nsemic=0  Cnfigmx=2
          i=1  nzeta=1  polorb=0  (2s)
            splnorm:   0.15000    
               vcte:    40.000    
               rinn:  -0.90000    
               qcoe:    0.0000    
               qyuk:    0.0000    
               qwid:   0.10000E-01
                rcs:    0.0000    
            lambdas:    1.0000    
L=1  Nsemic=0  Cnfigmx=2
          i=1  nzeta=1  polorb=1  (2p)  (to be polarized perturbatively)
            splnorm:   0.15000    
               vcte:    40.000    
               rinn:  -0.90000    
               qcoe:    0.0000    
               qyuk:    0.0000    
               qwid:   0.10000E-01
                rcs:    0.0000    
            lambdas:    1.0000    
L=2  Nsemic=0  Cnfigmx=3
          i=1  nzeta=0  polorb=0  (3d)  (perturbative polarization orbital) (from 2p)
-------------------------------------------------------------------------------
L=0  Nkbl=1  erefs: 0.17977+309
L=1  Nkbl=1  erefs: 0.17977+309
L=2  Nkbl=1  erefs: 0.17977+309
L=3  Nkbl=1  erefs: 0.17977+309
===============================================================================
</basis_specs>

Using PAO.SplitTailNorm
atom: Called for O                     (Z =   8)
Maximum radius (at nrval) set to   50.00000 8518

read_vps: Pseudopotential generation method:
read_vps: ATM3      Troullier-Martins                       
Valence charge in pseudo generation:    6.00000

read_vps: Pseudopotential includes a core correction:
read_vps: Pseudo-core for xc-correction

xc_check: Exchange-correlation functional:
xc_check: GGA Perdew, Burke & Ernzerhof 1996
V l=0 = -2*Zval/r beyond r=  1.1355
V l=1 = -2*Zval/r beyond r=  1.1355
V l=2 = -2*Zval/r beyond r=  1.1309
V l=3 = -2*Zval/r beyond r=  1.1286
All V_l potentials equal beyond r=  1.1355
This should be close to max(r_c) in ps generation
All pots = -2*Zval/r beyond r=  1.1355
Using small-core scheme (local charge) for Vlocal

VLOCAL_FROM_CHLOCAL: 99.0% of the norm of Vloc inside     33.667 Ry
VLOCAL_FROM_CHLOCAL: 99.9% of the norm of Vloc inside     76.727 Ry
atom: Maximum radius for chlocal:    1.37241
atom: Maximum radius for r*vlocal+2*Zval:    1.25469

KBgen: Kleinman-Bylander projectors: 
GHOST: No ghost state for L =  0
   l= 0   rc=  1.357289   el= -1.759790   Ekb=  9.151830   kbcos=  0.327271
GHOST: No ghost state for L =  1
   l= 1   rc=  1.345038   el= -0.663797   Ekb= -7.991133   kbcos= -0.393963
GHOST: No ghost state for L =  2
   l= 2   rc=  1.779310   el=  0.012956   Ekb= -1.983219   kbcos= -0.003702
GHOST: No ghost state for L =  3
   l= 3   rc=  2.085579   el=  0.019231   Ekb= -0.873623   kbcos= -0.000360

KBgen: Total number of Kleinman-Bylander projectors:  16
atom: -------------------------------------------------------------------------

atom: SANKEY-TYPE ORBITALS:

SPLIT: Orbitals with angular momentum L= 0

SPLIT: Basis orbitals for state 2s

SPLIT: PAO cut-off radius determined from an
SPLIT: energy shift=  0.010000 Ry
Split based on tail norm

   izeta = 1
                 lambda =    1.000000
                     rc =    3.532490
                 energy =   -1.748682
                kinetic =    1.612754
    potential(screened) =   -3.361436
       potential(ionic) =  -11.306460

SPLIT: Orbitals with angular momentum L= 1

SPLIT: Basis orbitals for state 2p

SPLIT: PAO cut-off radius determined from an
SPLIT: energy shift=  0.010000 Ry
Split based on tail norm

   izeta = 1
                 lambda =    1.000000
                     rc =    4.299534
                 energy =   -0.652755
                kinetic =    4.913628
    potential(screened) =   -5.566382
       potential(ionic) =  -13.292903

POLgen: Perturbative polarization orbital with L=  2

POLgen: Polarization orbital for state 2p
Split based on tail norm

   izeta = 1
                     rc =    4.299534
                 energy =    2.258078
                kinetic =    4.298689
    potential(screened) =   -2.040611
       potential(ionic) =   -8.188336
atom: Total number of Sankey-type orbitals:  9

atm_pop: Valence configuration (for local Pseudopot. screening):
 2s( 2.00)                                                            
 2p( 4.00)                                                            
 3d( 0.00)                                                            
Vna: chval, zval:    6.00000   6.00000

Vna:  Cut-off radius for the neutral-atom potential:   4.299534
comcore: Pseudo-core radius Rcore=  1.364142

atom: _________________________________________________________________________

<basis_specs>
===============================================================================
H                    Z=   1    Mass=  1.0080        Charge= 0.17977+309
Lmxo=1 Lmxkb= 2    BasisType=split      Semic=F
L=0  Nsemic=0  Cnfigmx=1
          i=1  nzeta=1  polorb=1  (1s)  (to be polarized perturbatively)
            splnorm:   0.15000    
               vcte:    40.000    
               rinn:  -0.90000    
               qcoe:    0.0000    
               qyuk:    0.0000    
               qwid:   0.10000E-01
                rcs:    0.0000    
            lambdas:    1.0000    
L=1  Nsemic=0  Cnfigmx=2
          i=1  nzeta=0  polorb=0  (2p)  (perturbative polarization orbital) (from 1s)
-------------------------------------------------------------------------------
L=0  Nkbl=1  erefs: 0.17977+309
L=1  Nkbl=1  erefs: 0.17977+309
L=2  Nkbl=1  erefs: 0.17977+309
===============================================================================
</basis_specs>

Using PAO.SplitTailNorm
atom: Called for H                     (Z =   1)
Maximum radius (at nrval) set to   50.00000 8518

read_vps: Pseudopotential generation method:
read_vps: ATM3      Troullier-Martins                       
Valence charge in pseudo generation:    1.00000

xc_check: Exchange-correlation functional:
xc_check: GGA Perdew, Burke & Ernzerhof 1996
V l=0 = -2*Zval/r beyond r=  1.2384
V l=1 = -2*Zval/r beyond r=  1.2321
V l=2 = -2*Zval/r beyond r=  1.2235
All V_l potentials equal beyond r=  1.2371
This should be close to max(r_c) in ps generation
All pots = -2*Zval/r beyond r=  1.2384
Using small-core scheme (local charge) for Vlocal

VLOCAL_FROM_CHLOCAL: 99.0% of the norm of Vloc inside     28.363 Ry
VLOCAL_FROM_CHLOCAL: 99.9% of the norm of Vloc inside     64.639 Ry
atom: Maximum radius for chlocal:    1.44620
atom: Maximum radius for r*vlocal+2*Zval:    1.31026

KBgen: Kleinman-Bylander projectors: 
GHOST: No ghost state for L =  0
   l= 0   rc=  1.362769   el= -0.477200   Ekb= -2.026093   kbcos= -0.345051
GHOST: No ghost state for L =  1
   l= 1   rc=  1.431710   el=  0.007219   Ekb= -0.445752   kbcos= -0.023729
GHOST: No ghost state for L =  2
   l= 2   rc=  1.471166   el=  0.012944   Ekb= -0.141918   kbcos= -0.003041

KBgen: Total number of Kleinman-Bylander projectors:   9
atom: -------------------------------------------------------------------------

atom: SANKEY-TYPE ORBITALS:

SPLIT: Orbitals with angular momentum L= 0

SPLIT: Basis orbitals for state 1s

SPLIT: PAO cut-off radius determined from an
SPLIT: energy shift=  0.010000 Ry
Split based on tail norm

   izeta = 1
                 lambda =    1.000000
                     rc =    5.232664
                 energy =   -0.466073
                kinetic =    0.944036
    potential(screened) =   -1.410108
       potential(ionic) =   -1.935607

POLgen: Perturbative polarization orbital with L=  1

POLgen: Polarization orbital for state 1s
Split based on tail norm

   izeta = 1
                     rc =    5.232664
                 energy =    0.681103
                kinetic =    1.331928
    potential(screened) =   -0.650824
       potential(ionic) =   -1.138826
atom: Total number of Sankey-type orbitals:  4

atm_pop: Valence configuration (for local Pseudopot. screening):
 1s( 1.00)                                                            
 2p( 0.00)                                                            
Vna: chval, zval:    1.00000   1.00000

Vna:  Cut-off radius for the neutral-atom potential:   5.232664

atom: _________________________________________________________________________

prinput: Basis input 

PAO.BasisType split     

%block ChemicalSpeciesLabel
    1    8 O                       # Species index, atomic number, species label
    2    1 H                       # Species index, atomic number, species label
%endblock ChemicalSpeciesLabel

%block PAO.Basis                 # Define Basis set
# WARNING: This information might be incomplete!
O                     2                    # Species label, number of l-shells
 n=2   0   1                         # n, l, Nzeta 
   3.532   
   1.000   
 n=2   1   1 P   1                   # n, l, Nzeta, Polarization, NzetaPol
   4.300   
   1.000   
H                     1                    # Species label, number of l-shells
 n=1   0   1 P   1                   # n, l, Nzeta, Polarization, NzetaPol
   5.233   
   1.000   
%endblock PAO.Basis

prinput: ----------------------------------------------------------------------

Dumping basis to NetCDF file O.ion.nc
Dumping basis to NetCDF file H.ion.nc
coor:   Atomic-coordinates input format  =     Cartesian coordinates
coor:                                          (in Angstroms)

ioxv: Reading coordinates and velocities from file
! Info in XV file prevails over previous structure input
WARNING: xoc.VERLET_RESTART not found--reading only XV file and moving back 1 time step using Euler

siesta: Atomic coordinates (Bohr) and species
siesta:      2.54735  -0.00100  -0.00070  1        1
siesta:      5.01155  -0.00100  -0.00070  1        2
siesta:     12.84052   0.00600   0.00130  2        3
siesta:     14.24566   0.02600   0.02130  2        4

siesta: System type = chain     

initatomlists: Number of atoms, orbitals, and projectors:      4    26    50

coxmol: Writing XMOL coordinates into file xoc.xyz                                                                                                                                                                                                                             

siesta: ******************** Simulation parameters ****************************
siesta:
siesta: The following are some of the parameters of the simulation.
siesta: A complete list of the parameters used, including default values,
siesta: can be found in file out.fdf
siesta:
redata: Spin configuration                          = none
redata: Number of spin components                   = 1
redata: Time-Reversal Symmetry                      = T
redata: Spin spiral                                 = F
redata: Long output                                 =   F
redata: Number of Atomic Species                    =        2
redata: Charge density info will appear in .RHO file
redata: Write Mulliken charges (when)               = none
redata: Write Mulliken Pop.                         = NO
redata: Write Hirshfeld charges (when)              = none
redata: Write Voronoi charges (when)                = none
redata: Write spin charge (when)                    = none
redata: Matel table size (NRTAB)                    =     1024
redata: Mesh Cutoff                                 =   200.0000 Ry
redata: Net charge of the system                    =     0.0000 |e|
redata: Min. number of SCF Iter                     =        0
redata: Max. number of SCF Iter                     =      250
redata: SCF convergence failure will abort job
redata: SCF mix quantity                            = Hamiltonian
redata: Mix DM or H after convergence               =   F
redata: Recompute H after scf cycle                 =   F
redata: Mix DM in first SCF step                    =   T
redata: Write Pulay info on disk                    =   F
redata: New DM Occupancy tolerance                  = 0.000000000001
redata: No kicks to SCF
redata: DM Mixing Weight for Kicks                  =     0.5000
redata: Require Harris convergence for SCF          =   F
redata: Harris energy tolerance for SCF             =     0.000100 eV
redata: Require DM convergence for SCF              =   T
redata: DM tolerance for SCF                        =     0.000300
redata: Require EDM convergence for SCF             =   F
redata: EDM tolerance for SCF                       =     0.001000 eV
redata: Require H convergence for SCF               =   T
redata: Hamiltonian tolerance for SCF               =     0.001000 eV
redata: Require (free) Energy convergence for SCF   =   F
redata: (free) Energy tolerance for SCF             =     0.000100 eV
redata: Using DFT-D3 dispersion                     =   F
redata: Using Saved Data (generic)                  =   F
redata: Use continuation files for DM               =   T
redata: Neglect nonoverlap interactions             =   F
redata: Method of Calculation                       = Diagonalization
redata: Electronic Temperature                      =   290.1130 K
redata: Fix the spin of the system                  =   F
redata: Max. number of TDED Iter                    =        1
redata: Number of TDED substeps                     =        3
redata: Dynamics option                             = Verlet MD run
redata: Initial MD time step                        =        1
redata:   Final MD time step                        =      300
redata: Length of MD time step                      =     1.0000 fs
redata: Initial Temperature of MD run               =     0.0000 K
redata: Perform a MD quench                         =   F
mix.SCF: Pulay mixing                            = Pulay
mix.SCF:    Variant                              = stable
mix.SCF:    History steps                        = 6
mix.SCF:    Linear mixing weight                 =     0.020000
mix.SCF:    Mixing weight                        =     0.020000
mix.SCF:    SVD condition                        = 0.1000E-07
redata: Save all siesta data in one NC              =   F
redata: ***********************************************************************

%block SCF.Mixers
  Pulay
%endblock SCF.Mixers

%block SCF.Mixer.Pulay
  # Mixing method
  method pulay
  variant stable

  # Mixing options
  weight 0.0200
  weight.linear 0.0200
  history 6
%endblock SCF.Mixer.Pulay

Size of DM history Fstack: 1
Total number of electrons:    14.000000
Total ionic charge:    14.000000
 Kpoints in:            1 . Kpoints trimmed:            1

siesta: k-grid: Number of k-points = 1
siesta: k-points from Monkhorst-Pack grid
siesta: k-cutoff (effective) =     5.000 Ang
siesta: k-point supercell and displacements
siesta: k-grid:     1     0     0      0.000
siesta: k-grid:     0     1     0      0.000
siesta: k-grid:     0     0     1      0.000

diag: Algorithm                                     = D&C
diag: Used triangular part                          = Lower
diag: Absolute tolerance                            =  0.100E-15
diag: Orthogonalization factor                      =  0.100E-05
diag: Memory factor                                 =  1.0000


ts: **************************************************************
ts: Save H and S matrices                           =    F
ts: Save DM and EDM matrices                        =    F
ts: Only save the overlap matrix S                  =    F
ts: **************************************************************

************************ Begin: TS CHECKS AND WARNINGS ************************
************************ End: TS CHECKS AND WARNINGS **************************


                     ====================================
                        Begin MD step =      1
                     ====================================

outcell: Unit cell vectors (Ang):
       10.000004    0.000000    0.000000
        0.000000   10.000004    0.000000
        0.000000    0.000000   10.000004

outcell: Cell vector modules (Ang)   :   10.000004   10.000004   10.000004
outcell: Cell angles (23,13,12) (deg):     90.0000     90.0000     90.0000
outcell: Cell volume (Ang**3)        :   1000.0012
Gamma-point calculation with multiply-connected orbital pairs
Gamma-point calculation with multiply-connected orbital pairs
Folding of H and S implicitly performed
Folding of H and S implicitly performed
<dSpData1D:S at geom step 1
  <sparsity:sparsity for geom step 1
    nrows_g=26 nrows=26 sparsity=1.0000 nnzs=676, refcount: 7>
  <dData1D:(new from dSpData1D) n=676, refcount: 1>
refcount: 1>
new_DM -- step:     1
Initializing Density Matrix...

Attempting to read DM from file... Failed...
DM filled with atomic data:
<dSpData2D:DM initialized from atoms
  <sparsity:sparsity for geom step 1
    nrows_g=26 nrows=26 sparsity=1.0000 nnzs=676, refcount: 8>
  <dData2D:DM n=676 m=1, refcount: 1>
refcount: 1>
No. of atoms with KB's overlaping orbs in proc 0. Max # of overlaps:       4      22

InitMesh: MESH = 90 x 90 x 90 = 729000
InitMesh: Mesh cutoff (required, used) =   200.000   223.865 Ry
New grid distribution [1]: sub = 2

stepf: Fermi-Dirac step function

siesta: Program's energy decomposition (eV):
siesta: Ebs     =      -209.882079
siesta: Eions   =      1581.702395
siesta: Ena     =       338.338828
siesta: Ekin    =       624.496491
siesta: Enl     =       -90.745057
siesta: Eso     =         0.000000
siesta: Edftu   =         0.000000
siesta: DEna    =        14.376359
siesta: DUscf   =         1.600328
siesta: DUext   =         0.000000
siesta: Ex      =      -190.457968
siesta: Ec      =       -13.816657
siesta: Exc     =      -204.274625
siesta: EbV     =         0.000000
siesta: eta*DQ  =         0.000000
siesta: Emadel  =         0.000000
siesta: Emeta   =         0.000000
siesta: Emolmec =         0.000000
siesta: Ekinion =         0.000000
siesta: Eharris =      -900.350734
siesta: Etot    =      -897.910071
siesta: FreeEng =      -897.979386

        iscf     Eharris(eV)        E_KS(eV)     FreeEng(eV)     dDmax    Ef(eV) dHmax(eV)
   scf:    1     -900.350734     -897.910071     -897.979386  0.774875 -4.685382  2.424484
timer: Routine,Calls,Time,% = IterSCF        1       0.561  25.03
   scf:    2     -897.948026     -897.929107     -897.998421  0.001844 -4.717999  2.358501
   scf:    3     -898.370910     -898.214121     -898.283435  0.064643 -5.797575  0.206372
   scf:    4     -898.214683     -898.215689     -898.285004  0.008796 -5.715265  0.376227
   scf:    5     -898.218907     -898.217643     -898.286958  0.007578 -5.917705  0.038368
   scf:    6     -898.217714     -898.217725     -898.287040  0.001478 -5.905395  0.015644
mix: Pulay -- inversion failed, > SVD [rank/size] 4 / 5
   scf:    7     -898.217736     -898.217731     -898.287046  0.000079 -5.906541  0.013314
   scf:    8     -898.217755     -898.217745     -898.287060  0.000406 -5.908792  0.002118
   scf:    9     -898.217746     -898.217746     -898.287060  0.000334 -5.909320  0.000179
   scf:   10     -898.217746     -898.217746     -898.287060  0.000005 -5.909273  0.000165

SCF Convergence by DM+H criterion
max |DM_out - DM_in|         :     0.0000052689
max |H_out - H_in|      (eV) :     0.0001647311
SCF cycle converged after 10 iterations

Using DM_out to compute the final energy and forces
No. of atoms with KB's overlaping orbs in proc 0. Max # of overlaps:       4      22

siesta: E_KS(eV) =             -898.2177

siesta: E_KS - E_eggbox =      -898.2177

siesta: Atomic forces (eV/Ang):
----------------------------------------
   Tot    0.000102    0.001493    0.000973
----------------------------------------
   Max    4.205988
   Res    1.715699    sqrt( Sum f_i^2 / 3N )
----------------------------------------
   Max    4.205988    constrained

Stress tensor Voigt[x,y,z,yz,xz,xy] (kbar):      -14.38       -0.36       -0.16       -0.03       -0.04        0.17
(Free)E + p*V (eV/cell)     -895.1867
Target enthalpy (eV/cell)     -898.2871

siesta: Stress tensor (static) (eV/Ang**3):
        -0.003070   -0.000045   -0.000045
        -0.000045    0.000005   -0.000001
        -0.000045   -0.000001    0.000005

siesta: Pressure (static):          1.63385328  kBar

siesta: Stress tensor (total) (eV/Ang**3):
        -0.008974    0.000106   -0.000026
         0.000106   -0.000226   -0.000017
        -0.000026   -0.000017   -0.000101

siesta: Pressure (total):          4.96724383  kBar

siesta: Temp_ion =    8047.893 K

                     ====================================
                        Begin MD step =      2
                     ====================================

outcell: Unit cell vectors (Ang):
       10.000004    0.000000    0.000000
        0.000000   10.000004    0.000000
        0.000000    0.000000   10.000004

outcell: Cell vector modules (Ang)   :   10.000004   10.000004   10.000004
outcell: Cell angles (23,13,12) (deg):     90.0000     90.0000     90.0000
outcell: Cell volume (Ang**3)        :   1000.0012
<dSpData1D:S at geom step 2
  <sparsity:sparsity for geom step 2
    nrows_g=26 nrows=26 sparsity=.9763 nnzs=660, refcount: 7>
  <dData1D:(new from dSpData1D) n=660, refcount: 1>
refcount: 1>
new_DM -- step:     2
Re-using DM from previous geometries...
Number of DMs in history: 1
 DM extrapolation coefficients: 
1   1.00000
New DM after history re-use:
<dSpData2D:SpM extrapolated using coords
  <sparsity:sparsity for geom step 2
    nrows_g=26 nrows=26 sparsity=.9763 nnzs=660, refcount: 9>
  <dData2D:(temp array for extrapolation) n=660 m=1, refcount: 1>
refcount: 1>
No. of atoms with KB's overlaping orbs in proc 0. Max # of overlaps:       4      18

InitMesh: MESH = 90 x 90 x 90 = 729000
InitMesh: Mesh cutoff (required, used) =   200.000   223.865 Ry
New grid distribution [1]: sub = 2

        iscf     Eharris(eV)        E_KS(eV)     FreeEng(eV)     dDmax    Ef(eV) dHmax(eV)
   scf:    1     -898.117531     -898.302261     -898.371575  0.012564 -5.751058  0.158522
   scf:    2     -898.300984     -898.302214     -898.371520  0.010737 -5.884472  0.109863
   scf:    3     -898.303175     -898.302765     -898.372077  0.004668 -5.844414  0.057239
   scf:    4     -898.302723     -898.302854     -898.372165  0.009749 -5.853442  0.014337
   scf:    5     -898.302872     -898.302898     -898.372213  0.006288 -5.854993  0.012244
   scf:    6     -898.302881     -898.302892     -898.372205  0.001409 -5.867582  0.014143
   scf:    7     -898.302917     -898.302913     -898.372228  0.002880 -5.864612  0.000610
   scf:    8     -898.302913     -898.302913     -898.372228  0.000131 -5.864876  0.000244

SCF Convergence by DM+H criterion
max |DM_out - DM_in|         :     0.0001311303
max |H_out - H_in|      (eV) :     0.0002439574
SCF cycle converged after 8 iterations

Using DM_out to compute the final energy and forces
No. of atoms with KB's overlaping orbs in proc 0. Max # of overlaps:       4      18

siesta: E_KS(eV) =             -898.3029

siesta: Atomic forces (eV/Ang):
----------------------------------------
   Tot    0.000698    0.000144    0.000217
----------------------------------------
   Max    3.091445
   Res    1.284685    sqrt( Sum f_i^2 / 3N )
----------------------------------------
   Max    3.091445    constrained

Stress tensor Voigt[x,y,z,yz,xz,xy] (kbar):      -14.27       -0.37       -0.18       -0.04       -0.24        0.05
(Free)E + p*V (eV/cell)     -895.2878
Target enthalpy (eV/cell)     -898.3722

siesta: Stress tensor (static) (eV/Ang**3):
        -0.003006   -0.000119   -0.000167
        -0.000119    0.000000   -0.000008
        -0.000167   -0.000008   -0.000006

siesta: Pressure (static):          1.60843328  kBar

siesta: Stress tensor (total) (eV/Ang**3):
        -0.008910    0.000031   -0.000148
         0.000031   -0.000231   -0.000024
        -0.000148   -0.000024   -0.000112

siesta: Pressure (total):          4.94182383  kBar

siesta: Temp_ion =    8215.648 K

                     ====================================
                        Begin MD step =      3
                     ====================================

outcell: Unit cell vectors (Ang):
       10.000004    0.000000    0.000000
        0.000000   10.000004    0.000000
        0.000000    0.000000   10.000004

outcell: Cell vector modules (Ang)   :   10.000004   10.000004   10.000004
outcell: Cell angles (23,13,12) (deg):     90.0000     90.0000     90.0000
outcell: Cell volume (Ang**3)        :   1000.0012
Gamma-point calculation with multiply-connected orbital pairs
Gamma-point calculation with multiply-connected orbital pairs
Folding of H and S implicitly performed
Folding of H and S implicitly performed
<dSpData1D:S at geom step 3
  <sparsity:sparsity for geom step 3
    nrows_g=26 nrows=26 sparsity=1.0000 nnzs=676, refcount: 7>
  <dData1D:(new from dSpData1D) n=676, refcount: 1>
refcount: 1>
new_DM -- step:     3
Re-using DM from previous geometries...
Number of DMs in history: 1
 DM extrapolation coefficients: 
1   1.00000
New DM after history re-use:
<dSpData2D:SpM extrapolated using coords
  <sparsity:sparsity for geom step 3
    nrows_g=26 nrows=26 sparsity=1.0000 nnzs=676, refcount: 9>
  <dData2D:(temp array for extrapolation) n=676 m=1, refcount: 1>
refcount: 1>
Note: For starting DM, Qtot, Tr[D*S] =         14.00000000         13.96020898
No. of atoms with KB's overlaping orbs in proc 0. Max # of overlaps:       4      22

InitMesh: MESH = 90 x 90 x 90 = 729000
InitMesh: Mesh cutoff (required, used) =   200.000   223.865 Ry
New grid distribution [1]: sub = 2

        iscf     Eharris(eV)        E_KS(eV)     FreeEng(eV)     dDmax    Ef(eV) dHmax(eV)
   scf:    1     -898.137189     -898.426896     -898.496210  0.019390 -5.427281  0.488893
   scf:    2     -898.421383     -898.426330     -898.495577  0.020963 -5.866011  0.202165
   scf:    3     -898.429526     -898.428088     -898.497379  0.007987 -5.781411  0.120832
   scf:    4     -898.427318     -898.428574     -898.497855  0.024786 -5.801367  0.041945
   scf:    5     -898.428820     -898.429000     -898.498313  0.016380 -5.806067  0.033635
   scf:    6     -898.429089     -898.429047     -898.498361  0.000484 -5.833310  0.022884
   scf:    7     -898.429137     -898.429109     -898.498424  0.002732 -5.826505  0.001584
   scf:    8     -898.429108     -898.429109     -898.498424  0.000451 -5.826963  0.000940
   scf:    9     -898.429109     -898.429109     -898.498424  0.000050 -5.827284  0.000734

SCF Convergence by DM+H criterion
max |DM_out - DM_in|         :     0.0000504647
max |H_out - H_in|      (eV) :     0.0007339004
SCF cycle converged after 9 iterations

Using DM_out to compute the final energy and forces
No. of atoms with KB's overlaping orbs in proc 0. Max # of overlaps:       4      22

siesta: E_KS(eV) =             -898.4291

siesta: Atomic forces (eV/Ang):
----------------------------------------
   Tot    0.000153    0.000222    0.000430
----------------------------------------
   Max    1.040110
   Res    0.428302    sqrt( Sum f_i^2 / 3N )
----------------------------------------
   Max    1.040110    constrained

Stress tensor Voigt[x,y,z,yz,xz,xy] (kbar):      -11.89       -0.37       -0.18       -0.04       -0.25        0.01
(Free)E + p*V (eV/cell)     -895.9078
Target enthalpy (eV/cell)     -898.4984

siesta: Stress tensor (static) (eV/Ang**3):
        -0.001407   -0.000043   -0.000011
        -0.000043    0.000003   -0.000001
        -0.000011   -0.000001    0.000004

siesta: Pressure (static):          0.74776716  kBar

siesta: Stress tensor (total) (eV/Ang**3):
        -0.007423    0.000008   -0.000156
         0.000008   -0.000234   -0.000026
        -0.000156   -0.000026   -0.000115

siesta: Pressure (total):          4.15064098  kBar

siesta: Temp_ion =    8501.572 K

                     ====================================
                        Begin MD step =      4
                     ====================================

outcell: Unit cell vectors (Ang):
       10.000004    0.000000    0.000000
        0.000000   10.000004    0.000000
        0.000000    0.000000   10.000004

outcell: Cell vector modules (Ang)   :   10.000004   10.000004   10.000004
outcell: Cell angles (23,13,12) (deg):     90.0000     90.0000     90.0000
outcell: Cell volume (Ang**3)        :   1000.0012
<dSpData1D:S at geom step 4
  <sparsity:sparsity for geom step 4
    nrows_g=26 nrows=26 sparsity=1.0000 nnzs=676, refcount: 7>
  <dData1D:(new from dSpData1D) n=676, refcount: 1>
refcount: 1>
new_DM -- step:     4
Re-using DM from previous geometries...
Number of DMs in history: 1
 DM extrapolation coefficients: 
1   1.00000
New DM after history re-use:
<dSpData2D:SpM extrapolated using coords
  <sparsity:sparsity for geom step 4
    nrows_g=26 nrows=26 sparsity=1.0000 nnzs=676, refcount: 9>
  <dData2D:(temp array for extrapolation) n=676 m=1, refcount: 1>
refcount: 1>
Note: For starting DM, Qtot, Tr[D*S] =         14.00000000         13.95130680
No. of atoms with KB's overlaping orbs in proc 0. Max # of overlaps:       4      22

InitMesh: MESH = 90 x 90 x 90 = 729000
InitMesh: Mesh cutoff (required, used) =   200.000   223.865 Ry
New grid distribution [1]: sub = 2

        iscf     Eharris(eV)        E_KS(eV)     FreeEng(eV)     dDmax    Ef(eV) dHmax(eV)
   scf:    1     -898.008288     -898.339321     -898.408631  0.020372 -5.315482  0.596768
   scf:    2     -898.305959     -898.330291     -898.398922  0.077221 -5.843295  0.332813
   scf:    3     -898.343791     -898.337934     -898.407018  0.029024 -5.735593  0.214789
   scf:    4     -898.334603     -898.340469     -898.409670  0.066437 -5.766923  0.085309
   scf:    5     -898.341364     -898.341972     -898.411281  0.033195 -5.772718  0.036934
   scf:    6     -898.342033     -898.342012     -898.411325  0.003098 -5.778000  0.037864
   scf:    7     -898.342211     -898.342137     -898.411451  0.002209 -5.798778  0.001873
   scf:    8     -898.342137     -898.342137     -898.411452  0.000379 -5.798300  0.002403
   scf:    9     -898.342136     -898.342137     -898.411452  0.000498 -5.799620  0.001483
   scf:   10     -898.342137     -898.342137     -898.411451  0.000068 -5.799730  0.001282
   scf:   11     -898.342137     -898.342137     -898.411452  0.000396 -5.800145  0.000345
   scf:   12     -898.342137     -898.342137     -898.411452  0.000005 -5.800153  0.000311

SCF Convergence by DM+H criterion
max |DM_out - DM_in|         :     0.0000048751
max |H_out - H_in|      (eV) :     0.0003107564
SCF cycle converged after 12 iterations

Using DM_out to compute the final energy and forces
No. of atoms with KB's overlaping orbs in proc 0. Max # of overlaps:       4      22

siesta: E_KS(eV) =             -898.3421

siesta: Atomic forces (eV/Ang):
----------------------------------------
   Tot    0.000950    0.000148    0.000285
----------------------------------------
   Max    1.747150
   Res    0.940464    sqrt( Sum f_i^2 / 3N )
----------------------------------------
   Max    1.747150    constrained

Stress tensor Voigt[x,y,z,yz,xz,xy] (kbar):      -10.23       -0.36       -0.13       -0.01        0.08        0.13
(Free)E + p*V (eV/cell)     -896.1817
Target enthalpy (eV/cell)     -898.4115

siesta: Stress tensor (static) (eV/Ang**3):
        -0.000162    0.000092    0.000276
         0.000092    0.000017    0.000027
         0.000276    0.000027    0.000049

siesta: Pressure (static):          0.05113280  kBar

siesta: Stress tensor (total) (eV/Ang**3):
        -0.006384    0.000081    0.000048
         0.000081   -0.000225   -0.000005
         0.000048   -0.000005   -0.000081

siesta: Pressure (total):          3.57243469  kBar

siesta: Temp_ion =    8313.572 K

                     ====================================
                        Begin MD step =      5
                     ====================================

outcell: Unit cell vectors (Ang):
       10.000004    0.000000    0.000000
        0.000000   10.000004    0.000000
        0.000000    0.000000   10.000004

outcell: Cell vector modules (Ang)   :   10.000004   10.000004   10.000004
outcell: Cell angles (23,13,12) (deg):     90.0000     90.0000     90.0000
outcell: Cell volume (Ang**3)        :   1000.0012
<dSpData1D:S at geom step 5
  <sparsity:sparsity for geom step 5
    nrows_g=26 nrows=26 sparsity=1.0000 nnzs=676, refcount: 7>
  <dData1D:(new from dSpData1D) n=676, refcount: 1>
refcount: 1>
new_DM -- step:     5
Re-using DM from previous geometries...
Number of DMs in history: 1
 DM extrapolation coefficients: 
1   1.00000
New DM after history re-use:
<dSpData2D:SpM extrapolated using coords
  <sparsity:sparsity for geom step 5
    nrows_g=26 nrows=26 sparsity=1.0000 nnzs=676, refcount: 9>
  <dData2D:(temp array for extrapolation) n=676 m=1, refcount: 1>
refcount: 1>
Note: For starting DM, Qtot, Tr[D*S] =         14.00000000         13.96581524
No. of atoms with KB's overlaping orbs in proc 0. Max # of overlaps:       4      22

InitMesh: MESH = 90 x 90 x 90 = 729000
InitMesh: Mesh cutoff (required, used) =   200.000   223.865 Ry
New grid distribution [1]: sub = 2

        iscf     Eharris(eV)        E_KS(eV)     FreeEng(eV)     dDmax    Ef(eV) dHmax(eV)
   scf:    1     -897.958728     -898.206042     -898.275357  0.013294 -5.441182  0.434865
   scf:    2     -898.198208     -898.204345     -898.273644  0.017260 -5.817223  0.239580
   scf:    3     -898.207912     -898.206308     -898.275618  0.006052 -5.733016  0.162289
   scf:    4     -898.207031     -898.207285     -898.276588  0.016386 -5.767737  0.031270
   scf:    5     -898.207263     -898.207418     -898.276730  0.011225 -5.770684  0.025634
   scf:    6     -898.207482     -898.207454     -898.276767  0.000463 -5.786163  0.015782
   scf:    7     -898.207510     -898.207499     -898.276814  0.003542 -5.785267  0.001422
   scf:    8     -898.207499     -898.207499     -898.276814  0.000297 -5.785712  0.000486

SCF Convergence by DM+H criterion
max |DM_out - DM_in|         :     0.0002974701
max |H_out - H_in|      (eV) :     0.0004860197
SCF cycle converged after 8 iterations

Using DM_out to compute the final energy and forces
No. of atoms with KB's overlaping orbs in proc 0. Max # of overlaps:       4      22

siesta: E_KS(eV) =             -898.2075

siesta: Atomic forces (eV/Ang):
----------------------------------------
   Tot    0.000169   -0.000192    0.000192
----------------------------------------
   Max    2.535855
   Res    1.287147    sqrt( Sum f_i^2 / 3N )
----------------------------------------
   Max    2.535855    constrained

Stress tensor Voigt[x,y,z,yz,xz,xy] (kbar):       -9.21       -0.33       -0.02        0.06        0.53        0.29
(Free)E + p*V (eV/cell)     -896.2870
Target enthalpy (eV/cell)     -898.2768

siesta: Stress tensor (static) (eV/Ang**3):
         0.000342    0.000184    0.000511
         0.000184    0.000033    0.000060
         0.000511    0.000060    0.000103

siesta: Pressure (static):         -0.25539808  kBar

siesta: Stress tensor (total) (eV/Ang**3):
        -0.005750    0.000181    0.000334
         0.000181   -0.000206    0.000036
         0.000334    0.000036   -0.000014

siesta: Pressure (total):          3.18803513  kBar

siesta: Temp_ion =    7991.809 K

                     ====================================
                        Begin MD step =      6
                     ====================================

outcell: Unit cell vectors (Ang):
       10.000004    0.000000    0.000000
        0.000000   10.000004    0.000000
        0.000000    0.000000   10.000004

outcell: Cell vector modules (Ang)   :   10.000004   10.000004   10.000004
outcell: Cell angles (23,13,12) (deg):     90.0000     90.0000     90.0000
outcell: Cell volume (Ang**3)        :   1000.0012
<dSpData1D:S at geom step 6
  <sparsity:sparsity for geom step 6
    nrows_g=26 nrows=26 sparsity=1.0000 nnzs=676, refcount: 7>
  <dData1D:(new from dSpData1D) n=676, refcount: 1>
refcount: 1>
new_DM -- step:     6
Re-using DM from previous geometries...
Number of DMs in history: 1
 DM extrapolation coefficients: 
1   1.00000
New DM after history re-use:
<dSpData2D:SpM extrapolated using coords
  <sparsity:sparsity for geom step 6
    nrows_g=26 nrows=26 sparsity=1.0000 nnzs=676, refcount: 9>
  <dData2D:(temp array for extrapolation) n=676 m=1, refcount: 1>
refcount: 1>
No. of atoms with KB's overlaping orbs in proc 0. Max # of overlaps:       4      22

InitMesh: MESH = 90 x 90 x 90 = 729000
InitMesh: Mesh cutoff (required, used) =   200.000   223.865 Ry
New grid distribution [1]: sub = 2

        iscf     Eharris(eV)        E_KS(eV)     FreeEng(eV)     dDmax    Ef(eV) dHmax(eV)
   scf:    1     -898.103357     -898.179191     -898.248503  0.012584 -5.708665  0.100022
   scf:    2     -898.164961     -898.174782     -898.243722  0.044313 -5.795584  0.093861
   scf:    3     -898.180619     -898.178345     -898.247578  0.021623 -5.765916  0.059079
   scf:    4     -898.179086     -898.179301     -898.248615  0.020419 -5.779840  0.020714
   scf:    5     -898.179304     -898.179325     -898.248640  0.003821 -5.780806  0.006626
   scf:    6     -898.179331     -898.179329     -898.248644  0.000739 -5.782250  0.006240
   scf:    7     -898.179336     -898.179334     -898.248648  0.000821 -5.786933  0.000355
   scf:    8     -898.179334     -898.179334     -898.248648  0.000217 -5.787029  0.000317

SCF Convergence by DM+H criterion
max |DM_out - DM_in|         :     0.0002173012
max |H_out - H_in|      (eV) :     0.0003172100
SCF cycle converged after 8 iterations

Using DM_out to compute the final energy and forces
No. of atoms with KB's overlaping orbs in proc 0. Max # of overlaps:       4      22

siesta: E_KS(eV) =             -898.1793

siesta: Atomic forces (eV/Ang):
----------------------------------------
   Tot   -0.001781    0.000189   -0.000045
----------------------------------------
   Max    2.641223
   Res    1.370435    sqrt( Sum f_i^2 / 3N )
----------------------------------------
   Max    2.641223    constrained

Stress tensor Voigt[x,y,z,yz,xz,xy] (kbar):       -8.96       -0.30        0.10        0.13        0.90        0.38
(Free)E + p*V (eV/cell)     -896.3425
Target enthalpy (eV/cell)     -898.2486

siesta: Stress tensor (static) (eV/Ang**3):
         0.000293    0.000203    0.000626
         0.000204    0.000042    0.000085
         0.000625    0.000085    0.000145

siesta: Pressure (static):         -0.25623341  kBar

siesta: Stress tensor (total) (eV/Ang**3):
        -0.005592    0.000239    0.000561
         0.000239   -0.000187    0.000081
         0.000561    0.000081    0.000060

siesta: Pressure (total):          3.05392740  kBar

siesta: Temp_ion =    7923.668 K

                     ====================================
                        Begin MD step =      7
                     ====================================

outcell: Unit cell vectors (Ang):
       10.000004    0.000000    0.000000
        0.000000   10.000004    0.000000
        0.000000    0.000000   10.000004

outcell: Cell vector modules (Ang)   :   10.000004   10.000004   10.000004
outcell: Cell angles (23,13,12) (deg):     90.0000     90.0000     90.0000
outcell: Cell volume (Ang**3)        :   1000.0012
<dSpData1D:S at geom step 7
  <sparsity:sparsity for geom step 7
    nrows_g=26 nrows=26 sparsity=.9882 nnzs=668, refcount: 7>
  <dData1D:(new from dSpData1D) n=668, refcount: 1>
refcount: 1>
new_DM -- step:     7
Re-using DM from previous geometries...
Number of DMs in history: 1
 DM extrapolation coefficients: 
1   1.00000
New DM after history re-use:
<dSpData2D:SpM extrapolated using coords
  <sparsity:sparsity for geom step 7
    nrows_g=26 nrows=26 sparsity=.9882 nnzs=668, refcount: 9>
  <dData2D:(temp array for extrapolation) n=668 m=1, refcount: 1>
refcount: 1>
Note: For starting DM, Qtot, Tr[D*S] =         14.00000000         14.02461831
No. of atoms with KB's overlaping orbs in proc 0. Max # of overlaps:       4      22

InitMesh: MESH = 90 x 90 x 90 = 729000
InitMesh: Mesh cutoff (required, used) =   200.000   223.865 Ry
New grid distribution [1]: sub = 2

        iscf     Eharris(eV)        E_KS(eV)     FreeEng(eV)     dDmax    Ef(eV) dHmax(eV)
   scf:    1     -898.395194     -898.285153     -898.354466  0.012793 -6.016321  0.289658
   scf:    2     -898.266439     -898.279627     -898.348728  0.049628 -5.784941  0.278871
   scf:    3     -898.287700     -898.284442     -898.353713  0.024463 -5.868349  0.183098
   scf:    4     -898.281645     -898.284755     -898.353984  0.043516 -5.821733  0.057101
   scf:    5     -898.285727     -898.285800     -898.355115  0.025485 -5.811188  0.016811
   scf:    6     -898.285809     -898.285806     -898.355121  0.001389 -5.814211  0.014056
   scf:    7     -898.285834     -898.285823     -898.355138  0.000467 -5.805256  0.000858
   scf:    8     -898.285823     -898.285823     -898.355138  0.000084 -5.805138  0.000854

SCF Convergence by DM+H criterion
max |DM_out - DM_in|         :     0.0000841667
max |H_out - H_in|      (eV) :     0.0008536756
SCF cycle converged after 8 iterations

Using DM_out to compute the final energy and forces
No. of atoms with KB's overlaping orbs in proc 0. Max # of overlaps:       4      22

siesta: E_KS(eV) =             -898.2858

siesta: Atomic forces (eV/Ang):
----------------------------------------
   Tot   -0.000924    0.000048    0.000008
----------------------------------------
   Max    2.167511
   Res    1.220242    sqrt( Sum f_i^2 / 3N )
----------------------------------------
   Max    2.167511    constrained

Stress tensor Voigt[x,y,z,yz,xz,xy] (kbar):       -9.77       -0.29        0.16        0.17        0.95        0.30
(Free)E + p*V (eV/cell)     -896.2953
Target enthalpy (eV/cell)     -898.3551

siesta: Stress tensor (static) (eV/Ang**3):
        -0.000222    0.000133    0.000569
         0.000133    0.000038    0.000089
         0.000569    0.000089    0.000150

siesta: Pressure (static):          0.01828507  kBar

siesta: Stress tensor (total) (eV/Ang**3):
        -0.006100    0.000188    0.000596
         0.000188   -0.000181    0.000107
         0.000596    0.000107    0.000102

siesta: Pressure (total):          3.30022235  kBar

siesta: Temp_ion =    8183.825 K

                     ====================================
                        Begin MD step =      8
                     ====================================

outcell: Unit cell vectors (Ang):
       10.000004    0.000000    0.000000
        0.000000   10.000004    0.000000
        0.000000    0.000000   10.000004

outcell: Cell vector modules (Ang)   :   10.000004   10.000004   10.000004
outcell: Cell angles (23,13,12) (deg):     90.0000     90.0000     90.0000
outcell: Cell volume (Ang**3)        :   1000.0012
Gamma-point calculation with multiply-connected orbital pairs
Gamma-point calculation with multiply-connected orbital pairs
Folding of H and S implicitly performed
Folding of H and S implicitly performed
<dSpData1D:S at geom step 8
  <sparsity:sparsity for geom step 8
    nrows_g=26 nrows=26 sparsity=1.0000 nnzs=676, refcount: 7>
  <dData1D:(new from dSpData1D) n=676, refcount: 1>
refcount: 1>
new_DM -- step:     8
Re-using DM from previous geometries...
Number of DMs in history: 1
 DM extrapolation coefficients: 
1   1.00000
New DM after history re-use:
<dSpData2D:SpM extrapolated using coords
  <sparsity:sparsity for geom step 8
    nrows_g=26 nrows=26 sparsity=1.0000 nnzs=676, refcount: 9>
  <dData2D:(temp array for extrapolation) n=676 m=1, refcount: 1>
refcount: 1>
Note: For starting DM, Qtot, Tr[D*S] =         14.00000000         14.04859228
No. of atoms with KB's overlaping orbs in proc 0. Max # of overlaps:       4      26

InitMesh: MESH = 90 x 90 x 90 = 729000
InitMesh: Mesh cutoff (required, used) =   200.000   223.865 Ry
New grid distribution [1]: sub = 2

        iscf     Eharris(eV)        E_KS(eV)     FreeEng(eV)     dDmax    Ef(eV) dHmax(eV)
   scf:    1     -898.670719     -898.428437     -898.497751  0.018332 -6.268528  0.613327
   scf:    2     -898.364627     -898.410174     -898.479486  0.024464 -5.791696  0.582369
   scf:    3     -898.439289     -898.427517     -898.496832  0.011454 -5.984856  0.380894
   scf:    4     -898.432048     -898.431560     -898.500871  0.012231 -5.858529  0.037667
   scf:    5     -898.431436     -898.431573     -898.500885  0.007035 -5.851125  0.035348
   scf:    6     -898.431373     -898.431541     -898.500850  0.003307 -5.851317  0.040787
   scf:    7     -898.431737     -898.431704     -898.501019  0.006102 -5.838454  0.003266
   scf:    8     -898.431705     -898.431705     -898.501019  0.000144 -5.838900  0.001558
   scf:    9     -898.431705     -898.431705     -898.501020  0.000096 -5.837379  0.000168

SCF Convergence by DM+H criterion
max |DM_out - DM_in|         :     0.0000956767
max |H_out - H_in|      (eV) :     0.0001679820
SCF cycle converged after 9 iterations

Using DM_out to compute the final energy and forces
No. of atoms with KB's overlaping orbs in proc 0. Max # of overlaps:       4      26

siesta: E_KS(eV) =             -898.4317

siesta: Atomic forces (eV/Ang):
----------------------------------------
   Tot   -0.000802    0.000147   -0.000149
----------------------------------------
   Max    1.839929
   Res    0.819649    sqrt( Sum f_i^2 / 3N )
----------------------------------------
   Max    1.839929    constrained

Stress tensor Voigt[x,y,z,yz,xz,xy] (kbar):      -11.82       -0.33        0.08        0.13        0.50       -0.05
(Free)E + p*V (eV/cell)     -895.9892
Target enthalpy (eV/cell)     -898.5010

siesta: Stress tensor (static) (eV/Ang**3):
        -0.001270   -0.000070    0.000253
        -0.000070    0.000007    0.000044
         0.000253    0.000044    0.000075

siesta: Pressure (static):          0.63461119  kBar

siesta: Stress tensor (total) (eV/Ang**3):
        -0.007380   -0.000033    0.000311
        -0.000033   -0.000208    0.000079
         0.000311    0.000079    0.000053

siesta: Pressure (total):          4.02430389  kBar

siesta: Temp_ion =    8524.705 K

                     ====================================
                        Begin MD step =      9
                     ====================================

outcell: Unit cell vectors (Ang):
       10.000004    0.000000    0.000000
        0.000000   10.000004    0.000000
        0.000000    0.000000   10.000004

outcell: Cell vector modules (Ang)   :   10.000004   10.000004   10.000004
outcell: Cell angles (23,13,12) (deg):     90.0000     90.0000     90.0000
outcell: Cell volume (Ang**3)        :   1000.0012
<dSpData1D:S at geom step 9
  <sparsity:sparsity for geom step 9
    nrows_g=26 nrows=26 sparsity=1.0000 nnzs=676, refcount: 7>
  <dData1D:(new from dSpData1D) n=676, refcount: 1>
refcount: 1>
new_DM -- step:     9
Re-using DM from previous geometries...
Number of DMs in history: 1
 DM extrapolation coefficients: 
1   1.00000
New DM after history re-use:
<dSpData2D:SpM extrapolated using coords
  <sparsity:sparsity for geom step 9
    nrows_g=26 nrows=26 sparsity=1.0000 nnzs=676, refcount: 9>
  <dData2D:(temp array for extrapolation) n=676 m=1, refcount: 1>
refcount: 1>
Note: For starting DM, Qtot, Tr[D*S] =         14.00000000         14.05342422
No. of atoms with KB's overlaping orbs in proc 0. Max # of overlaps:       4      26

InitMesh: MESH = 90 x 90 x 90 = 729000
InitMesh: Mesh cutoff (required, used) =   200.000   223.865 Ry
New grid distribution [1]: sub = 2

        iscf     Eharris(eV)        E_KS(eV)     FreeEng(eV)     dDmax    Ef(eV) dHmax(eV)
   scf:    1     -898.692734     -898.418731     -898.488044  0.021834 -6.350558  0.714376
   scf:    2     -898.271589     -898.375507     -898.444705  0.060461 -5.828282  0.864346
   scf:    3     -898.443543     -898.418504     -898.487807  0.035250 -6.091154  0.481346
   scf:    4     -898.421317     -898.423082     -898.492317  0.039842 -5.913263  0.042863
   scf:    5     -898.424229     -898.423957     -898.493269  0.018215 -5.905525  0.045255
   scf:    6     -898.423920     -898.424015     -898.493328  0.008168 -5.908930  0.035091
   scf:    7     -898.424207     -898.424143     -898.493457  0.003549 -5.885882  0.002325
   scf:    8     -898.424143     -898.424143     -898.493457  0.000230 -5.886599  0.001837
   scf:    9     -898.424142     -898.424143     -898.493457  0.000487 -5.885394  0.000593
   scf:   10     -898.424143     -898.424143     -898.493457  0.000064 -5.885331  0.000500

SCF Convergence by DM+H criterion
max |DM_out - DM_in|         :     0.0000639115
max |H_out - H_in|      (eV) :     0.0005003995
SCF cycle converged after 10 iterations

Using DM_out to compute the final energy and forces
No. of atoms with KB's overlaping orbs in proc 0. Max # of overlaps:       4      26

siesta: E_KS(eV) =             -898.4241

siesta: Atomic forces (eV/Ang):
----------------------------------------
   Tot   -0.000272    0.000164   -0.000261
----------------------------------------
   Max    1.634868
   Res    0.922955    sqrt( Sum f_i^2 / 3N )
----------------------------------------
   Max    1.634868    constrained

Stress tensor Voigt[x,y,z,yz,xz,xy] (kbar):      -14.58       -0.46       -0.24       -0.07       -0.54       -0.70
(Free)E + p*V (eV/cell)     -895.3133
Target enthalpy (eV/cell)     -898.4935

siesta: Stress tensor (static) (eV/Ang**3):
        -0.002720   -0.000434   -0.000386
        -0.000434   -0.000069   -0.000083
        -0.000386   -0.000083   -0.000140

siesta: Pressure (static):          1.56429976  kBar

siesta: Stress tensor (total) (eV/Ang**3):
        -0.009102   -0.000438   -0.000337
        -0.000438   -0.000286   -0.000042
        -0.000337   -0.000042   -0.000152

siesta: Pressure (total):          5.09518320  kBar

siesta: Temp_ion =    8495.257 K

                     ====================================
                        Begin MD step =     10
                     ====================================

outcell: Unit cell vectors (Ang):
       10.000004    0.000000    0.000000
        0.000000   10.000004    0.000000
        0.000000    0.000000   10.000004

outcell: Cell vector modules (Ang)   :   10.000004   10.000004   10.000004
outcell: Cell angles (23,13,12) (deg):     90.0000     90.0000     90.0000
outcell: Cell volume (Ang**3)        :   1000.0012
<dSpData1D:S at geom step 10
  <sparsity:sparsity for geom step 10
    nrows_g=26 nrows=26 sparsity=1.0000 nnzs=676, refcount: 7>
  <dData1D:(new from dSpData1D) n=676, refcount: 1>
refcount: 1>
new_DM -- step:    10
Re-using DM from previous geometries...
Number of DMs in history: 1
 DM extrapolation coefficients: 
1   1.00000
New DM after history re-use:
<dSpData2D:SpM extrapolated using coords
  <sparsity:sparsity for geom step 10
    nrows_g=26 nrows=26 sparsity=1.0000 nnzs=676, refcount: 9>
  <dData2D:(temp array for extrapolation) n=676 m=1, refcount: 1>
refcount: 1>
Note: For starting DM, Qtot, Tr[D*S] =         14.00000000         14.03128989
No. of atoms with KB's overlaping orbs in proc 0. Max # of overlaps:       4      26

InitMesh: MESH = 90 x 90 x 90 = 729000
InitMesh: Mesh cutoff (required, used) =   200.000   223.865 Ry
New grid distribution [1]: sub = 2

        iscf     Eharris(eV)        E_KS(eV)     FreeEng(eV)     dDmax    Ef(eV) dHmax(eV)
   scf:    1     -898.477767     -898.272136     -898.341442  0.013451 -6.194695  0.475736
   scf:    2     -898.075386     -898.212675     -898.281104  0.078705 -5.909389  0.903179
   scf:    3     -898.297300     -898.274356     -898.343641  0.058174 -6.101891  0.301015
   scf:    4     -898.262615     -898.272365     -898.341329  0.055447 -5.986829  0.076750
   scf:    5     -898.277546     -898.275885     -898.345162  0.028745 -5.965300  0.030884
   scf:    6     -898.276351     -898.276303     -898.345617  0.012555 -5.968340  0.022588
   scf:    7     -898.276363     -898.276341     -898.345655  0.000925 -5.950002  0.003024
   scf:    8     -898.276344     -898.276345     -898.345659  0.001430 -5.951928  0.001144
   scf:    9     -898.276345     -898.276345     -898.345659  0.000322 -5.951357  0.001190
   scf:   10     -898.276345     -898.276345     -898.345659  0.000045 -5.951353  0.001092
   scf:   11     -898.276345     -898.276345     -898.345659  0.000120 -5.951249  0.000486

SCF Convergence by DM+H criterion
max |DM_out - DM_in|         :     0.0001196961
max |H_out - H_in|      (eV) :     0.0004855567
SCF cycle converged after 11 iterations

Using DM_out to compute the final energy and forces
No. of atoms with KB's overlaping orbs in proc 0. Max # of overlaps:       4      26

siesta: E_KS(eV) =             -898.2763

siesta: Atomic forces (eV/Ang):
----------------------------------------
   Tot    0.002522   -0.000025   -0.000834
----------------------------------------
   Max    3.775866
   Res    1.742267    sqrt( Sum f_i^2 / 3N )
----------------------------------------
   Max    3.775866    constrained

Stress tensor Voigt[x,y,z,yz,xz,xy] (kbar):      -15.79       -0.62       -0.71       -0.34       -1.54       -1.26
(Free)E + p*V (eV/cell)     -894.7816
Target enthalpy (eV/cell)     -898.3457

siesta: Stress tensor (static) (eV/Ang**3):
        -0.003507   -0.000764   -0.001024
        -0.000764   -0.000167   -0.000253
        -0.001024   -0.000253   -0.000430

siesta: Pressure (static):          2.19156449  kBar

siesta: Stress tensor (total) (eV/Ang**3):
        -0.009858   -0.000790   -0.000960
        -0.000789   -0.000389   -0.000213
        -0.000960   -0.000213   -0.000445

siesta: Pressure (total):          5.71025065  kBar

siesta: Temp_ion =    8195.248 K

                     ====================================
                        Begin MD step =     11
                     ====================================

outcell: Unit cell vectors (Ang):
       10.000004    0.000000    0.000000
        0.000000   10.000004    0.000000
        0.000000    0.000000   10.000004

outcell: Cell vector modules (Ang)   :   10.000004   10.000004   10.000004
outcell: Cell angles (23,13,12) (deg):     90.0000     90.0000     90.0000
outcell: Cell volume (Ang**3)        :   1000.0012
<dSpData1D:S at geom step 11
  <sparsity:sparsity for geom step 11
    nrows_g=26 nrows=26 sparsity=1.0000 nnzs=676, refcount: 7>
  <dData1D:(new from dSpData1D) n=676, refcount: 1>
refcount: 1>
new_DM -- step:    11
Re-using DM from previous geometries...
Number of DMs in history: 1
 DM extrapolation coefficients: 
1   1.00000
New DM after history re-use:
<dSpData2D:SpM extrapolated using coords
  <sparsity:sparsity for geom step 11
    nrows_g=26 nrows=26 sparsity=1.0000 nnzs=676, refcount: 9>
  <dData2D:(temp array for extrapolation) n=676 m=1, refcount: 1>
refcount: 1>
No. of atoms with KB's overlaping orbs in proc 0. Max # of overlaps:       4      26

InitMesh: MESH = 90 x 90 x 90 = 729000
InitMesh: Mesh cutoff (required, used) =   200.000   223.865 Ry
New grid distribution [1]: sub = 2

        iscf     Eharris(eV)        E_KS(eV)     FreeEng(eV)     dDmax    Ef(eV) dHmax(eV)
   scf:    1     -898.462069     -898.374310     -898.443613  0.015084 -5.934506  0.250154
   scf:    2     -898.213649     -898.325051     -898.393457  0.099874 -6.035745  0.775877
   scf:    3     -898.385814     -898.376282     -898.445592  0.083505 -5.955821  0.094341
   scf:    4     -898.372067     -898.375236     -898.444423  0.028844 -5.993641  0.083505
   scf:    5     -898.376893     -898.376531     -898.445840  0.019648 -6.009173  0.043050
   scf:    6     -898.376481     -898.376547     -898.445862  0.005348 -6.034260  0.017076
   scf:    7     -898.376591     -898.376578     -898.445892  0.002052 -6.039510  0.001806
   scf:    8     -898.376578     -898.376578     -898.445892  0.000358 -6.040185  0.000436
   scf:    9     -898.376578     -898.376578     -898.445892  0.000288 -6.040198  0.000398

SCF Convergence by DM+H criterion
max |DM_out - DM_in|         :     0.0002875697
max |H_out - H_in|      (eV) :     0.0003981214
SCF cycle converged after 9 iterations

Using DM_out to compute the final energy and forces
No. of atoms with KB's overlaping orbs in proc 0. Max # of overlaps:       4      26

siesta: E_KS(eV) =             -898.3766

siesta: Atomic forces (eV/Ang):
----------------------------------------
   Tot   -0.000132   -0.000222   -0.000679
----------------------------------------
   Max    2.743417
   Res    1.283946    sqrt( Sum f_i^2 / 3N )
----------------------------------------
   Max    2.743417    constrained

Stress tensor Voigt[x,y,z,yz,xz,xy] (kbar):      -13.32       -0.64       -0.77       -0.37       -1.27       -1.02
(Free)E + p*V (eV/cell)     -895.3834
Target enthalpy (eV/cell)     -898.4459

siesta: Stress tensor (static) (eV/Ang**3):
        -0.002255   -0.000601   -0.000873
        -0.000601   -0.000156   -0.000248
        -0.000873   -0.000248   -0.000420

siesta: Pressure (static):          1.51222885  kBar

siesta: Stress tensor (total) (eV/Ang**3):
        -0.008311   -0.000639   -0.000794
        -0.000639   -0.000398   -0.000232
        -0.000794   -0.000232   -0.000479

siesta: Pressure (total):          4.90665309  kBar

siesta: Temp_ion =    8403.874 K

                     ====================================
                        Begin MD step =     12
                     ====================================

outcell: Unit cell vectors (Ang):
       10.000004    0.000000    0.000000
        0.000000   10.000004    0.000000
        0.000000    0.000000   10.000004

outcell: Cell vector modules (Ang)   :   10.000004   10.000004   10.000004
outcell: Cell angles (23,13,12) (deg):     90.0000     90.0000     90.0000
outcell: Cell volume (Ang**3)        :   1000.0012
<dSpData1D:S at geom step 12
  <sparsity:sparsity for geom step 12
    nrows_g=26 nrows=26 sparsity=1.0000 nnzs=676, refcount: 7>
  <dData1D:(new from dSpData1D) n=676, refcount: 1>
refcount: 1>
new_DM -- step:    12
Re-using DM from previous geometries...
Number of DMs in history: 1
 DM extrapolation coefficients: 
1   1.00000
New DM after history re-use:
<dSpData2D:SpM extrapolated using coords
  <sparsity:sparsity for geom step 12
    nrows_g=26 nrows=26 sparsity=1.0000 nnzs=676, refcount: 9>
  <dData2D:(temp array for extrapolation) n=676 m=1, refcount: 1>
refcount: 1>
Note: For starting DM, Qtot, Tr[D*S] =         14.00000000         13.96942411
No. of atoms with KB's overlaping orbs in proc 0. Max # of overlaps:       4      26

InitMesh: MESH = 90 x 90 x 90 = 729000
InitMesh: Mesh cutoff (required, used) =   200.000   223.865 Ry
New grid distribution [1]: sub = 2

        iscf     Eharris(eV)        E_KS(eV)     FreeEng(eV)     dDmax    Ef(eV) dHmax(eV)
   scf:    1     -898.462357     -898.510504     -898.579740  0.032337 -5.778487  0.560841
   scf:    2     -898.146491     -898.397692     -898.460039  0.223731 -6.196879  0.813786
   scf:    3     -898.553763     -898.505380     -898.574218  0.150378 -5.950595  0.403478
   scf:    4     -898.427957     -898.492364     -898.559719  0.157740 -6.130115  0.149452
   scf:    5     -898.457048     -898.475878     -898.541753  0.033860 -6.144918  0.164503
   scf:    6     -898.503131     -898.513518     -898.582802  0.152385 -6.153519  0.019640
   scf:    7     -898.513343     -898.514000     -898.583296  0.023433 -6.148918  0.011458
   scf:    8     -898.514088     -898.514112     -898.583425  0.008207 -6.153211  0.001857
   scf:    9     -898.514087     -898.514108     -898.583418  0.002929 -6.153348  0.003019
   scf:   10     -898.514111     -898.514115     -898.583428  0.001874 -6.154386  0.001489
   scf:   11     -898.514115     -898.514115     -898.583428  0.000097 -6.154374  0.001407
   scf:   12     -898.514115     -898.514115     -898.583428  0.000145 -6.154365  0.000928

SCF Convergence by DM+H criterion
max |DM_out - DM_in|         :     0.0001453816
max |H_out - H_in|      (eV) :     0.0009275883
SCF cycle converged after 12 iterations

Using DM_out to compute the final energy and forces
No. of atoms with KB's overlaping orbs in proc 0. Max # of overlaps:       4      26

siesta: E_KS(eV) =             -898.5141

siesta: Atomic forces (eV/Ang):
----------------------------------------
   Tot    0.001431   -0.000932    0.000312
----------------------------------------
   Max    0.188849
   Res    0.085968    sqrt( Sum f_i^2 / 3N )
----------------------------------------
   Max    0.188849    constrained

Stress tensor Voigt[x,y,z,yz,xz,xy] (kbar):       -9.86       -0.48       -0.33       -0.12       -0.20       -0.26
(Free)E + p*V (eV/cell)     -896.3622
Target enthalpy (eV/cell)     -898.5834

siesta: Stress tensor (static) (eV/Ang**3):
        -0.000111   -0.000036   -0.000075
        -0.000036   -0.000012   -0.000018
        -0.000075   -0.000018   -0.000023

siesta: Pressure (static):          0.07796921  kBar

siesta: Stress tensor (total) (eV/Ang**3):
        -0.006156   -0.000164   -0.000126
        -0.000164   -0.000299   -0.000075
        -0.000126   -0.000075   -0.000208

siesta: Pressure (total):          3.55880512  kBar

siesta: Temp_ion =    8715.874 K

                     ====================================
                        Begin MD step =     13
                     ====================================

outcell: Unit cell vectors (Ang):
       10.000004    0.000000    0.000000
        0.000000   10.000004    0.000000
        0.000000    0.000000   10.000004

outcell: Cell vector modules (Ang)   :   10.000004   10.000004   10.000004
outcell: Cell angles (23,13,12) (deg):     90.0000     90.0000     90.0000
outcell: Cell volume (Ang**3)        :   1000.0012
<dSpData1D:S at geom step 13
  <sparsity:sparsity for geom step 13
    nrows_g=26 nrows=26 sparsity=1.0000 nnzs=676, refcount: 7>
  <dData1D:(new from dSpData1D) n=676, refcount: 1>
refcount: 1>
new_DM -- step:    13
Re-using DM from previous geometries...
Number of DMs in history: 1
 DM extrapolation coefficients: 
1   1.00000
New DM after history re-use:
<dSpData2D:SpM extrapolated using coords
  <sparsity:sparsity for geom step 13
    nrows_g=26 nrows=26 sparsity=1.0000 nnzs=676, refcount: 9>
  <dData2D:(temp array for extrapolation) n=676 m=1, refcount: 1>
refcount: 1>
Note: For starting DM, Qtot, Tr[D*S] =         14.00000000         13.96252707
No. of atoms with KB's overlaping orbs in proc 0. Max # of overlaps:       4      26

InitMesh: MESH = 90 x 90 x 90 = 729000
InitMesh: Mesh cutoff (required, used) =   200.000   223.865 Ry
New grid distribution [1]: sub = 2

        iscf     Eharris(eV)        E_KS(eV)     FreeEng(eV)     dDmax    Ef(eV) dHmax(eV)
   scf:    1     -898.237097     -898.414514     -898.483543  0.046995 -5.830581  0.699879
   scf:    2     -897.529804     -898.140855     -898.188670  0.400070 -6.375894  1.014694
   scf:    3     -898.518111     -898.390407     -898.457522  0.242936 -6.067288  0.491847
   scf:    4     -897.786004     -898.255263     -898.308719  0.416485 -6.301704  0.359060
   scf:    5     -898.346525     -898.302910     -898.360995  0.045042 -6.300512  0.303430
   scf:    6     -897.633702     -898.010702     -898.036704  0.213945 -6.264814  0.578180
   scf:    7     -898.015116     -898.377525     -898.443242  0.615832 -6.283858  0.183686
   scf:    8     -898.358913     -898.368427     -898.433372  0.014758 -6.284157  0.201580
   scf:    9     -898.103756     -898.252137     -898.306642  0.130158 -6.283970  0.360403
   scf:   10     -897.545195     -898.244709     -898.297082  0.601752 -6.290309  0.370572
   scf:   11     -898.413861     -898.422429     -898.491744  0.311354 -6.291316  0.008178
   scf:   12     -898.422145     -898.422300     -898.491611  0.003708 -6.291123  0.012646
   scf:   13     -898.422063     -898.422459     -898.491749  0.016932 -6.291134  0.007813
   scf:   14     -898.422422     -898.422515     -898.491828  0.008814 -6.291299  0.003393
   scf:   15     -898.422308     -898.422431     -898.491745  0.004424 -6.291422  0.008183
   scf:   16     -898.422523     -898.422482     -898.491796  0.002164 -6.291199  0.005565
   scf:   17     -898.422537     -898.422530     -898.491839  0.004596 -6.289358  0.000416
   scf:   18     -898.422530     -898.422530     -898.491839  0.000035 -6.289559  0.000284

SCF Convergence by DM+H criterion
max |DM_out - DM_in|         :     0.0000349783
max |H_out - H_in|      (eV) :     0.0002837362
SCF cycle converged after 18 iterations

Using DM_out to compute the final energy and forces
No. of atoms with KB's overlaping orbs in proc 0. Max # of overlaps:       4      26

siesta: E_KS(eV) =             -898.4225

siesta: Atomic forces (eV/Ang):
----------------------------------------
   Tot   -0.002025   -0.000578   -0.000922
----------------------------------------
   Max    1.488761
   Res    0.750932    sqrt( Sum f_i^2 / 3N )
----------------------------------------
   Max    1.488761    constrained

Stress tensor Voigt[x,y,z,yz,xz,xy] (kbar):       -7.65       -0.28        0.24        0.20        0.76        0.47
(Free)E + p*V (eV/cell)     -896.8926
Target enthalpy (eV/cell)     -898.4918

siesta: Stress tensor (static) (eV/Ang**3):
         0.001394    0.000497    0.000646
         0.000497    0.000147    0.000236
         0.000646    0.000236    0.000421

siesta: Pressure (static):         -1.04781847  kBar

siesta: Stress tensor (total) (eV/Ang**3):
        -0.004772    0.000295    0.000476
         0.000295   -0.000172    0.000128
         0.000477    0.000128    0.000147

siesta: Pressure (total):          2.56224609  kBar

siesta: Temp_ion =    8512.437 K

                     ====================================
                        Begin MD step =     14
                     ====================================

outcell: Unit cell vectors (Ang):
       10.000004    0.000000    0.000000
        0.000000   10.000004    0.000000
        0.000000    0.000000   10.000004

outcell: Cell vector modules (Ang)   :   10.000004   10.000004   10.000004
outcell: Cell angles (23,13,12) (deg):     90.0000     90.0000     90.0000
outcell: Cell volume (Ang**3)        :   1000.0012
<dSpData1D:S at geom step 14
  <sparsity:sparsity for geom step 14
    nrows_g=26 nrows=26 sparsity=1.0000 nnzs=676, refcount: 7>
  <dData1D:(new from dSpData1D) n=676, refcount: 1>
refcount: 1>
new_DM -- step:    14
Re-using DM from previous geometries...
Number of DMs in history: 1
 DM extrapolation coefficients: 
1   1.00000
New DM after history re-use:
<dSpData2D:SpM extrapolated using coords
  <sparsity:sparsity for geom step 14
    nrows_g=26 nrows=26 sparsity=1.0000 nnzs=676, refcount: 9>
  <dData2D:(temp array for extrapolation) n=676 m=1, refcount: 1>
refcount: 1>
Note: For starting DM, Qtot, Tr[D*S] =         14.00000000         13.97667015
No. of atoms with KB's overlaping orbs in proc 0. Max # of overlaps:       4      26

InitMesh: MESH = 90 x 90 x 90 = 729000
InitMesh: Mesh cutoff (required, used) =   200.000   223.865 Ry
New grid distribution [1]: sub = 2

        iscf     Eharris(eV)        E_KS(eV)     FreeEng(eV)     dDmax    Ef(eV) dHmax(eV)
   scf:    1     -898.009989     -898.235222     -898.303876  0.060865 -6.093103  0.647060
   scf:    2     -896.731635     -897.772560     -897.804840  0.563298 -6.532285  1.285409
   scf:    3     -898.394122     -898.221467     -898.289103  0.387653 -6.222186  0.399384
   scf:    4     -898.249704     -898.237620     -898.306439  0.049529 -6.230067  0.360106
   scf:    5     -897.645368     -898.071344     -898.123219  0.396745 -6.447793  0.398816
   scf:    6     -898.235662     -898.161370     -898.222182  0.098122 -6.412388  0.278079
   scf:    7     -898.182941     -898.241657     -898.310618  0.289049 -6.424866  0.072310
   scf:    8     -898.244295     -898.247569     -898.316796  0.074295 -6.425237  0.030957
   scf:    9     -898.027240     -898.171061     -898.232799  0.201801 -6.433658  0.262109
   scf:   10     -898.241193     -898.247816     -898.317130  0.224100 -6.431981  0.009864
   scf:   11     -898.247809     -898.247934     -898.317218  0.012079 -6.432039  0.004925
   scf:   12     -898.247949     -898.247942     -898.317230  0.000949 -6.432179  0.003774
   scf:   13     -898.247953     -898.247949     -898.317242  0.001340 -6.432754  0.002728
   scf:   14     -898.247922     -898.247938     -898.317224  0.001880 -6.432317  0.004398
   scf:   15     -898.247946     -898.247950     -898.317246  0.002940 -6.433143  0.001828
   scf:   16     -898.247947     -898.247949     -898.317247  0.000548 -6.433376  0.001579
   scf:   17     -898.247949     -898.247949     -898.317247  0.000273 -6.433837  0.001200
   scf:   18     -898.247949     -898.247949     -898.317247  0.000056 -6.433912  0.001082
   scf:   19     -898.247949     -898.247949     -898.317247  0.000093 -6.434210  0.000568

SCF Convergence by DM+H criterion
max |DM_out - DM_in|         :     0.0000928752
max |H_out - H_in|      (eV) :     0.0005677625
SCF cycle converged after 19 iterations

Using DM_out to compute the final energy and forces
No. of atoms with KB's overlaping orbs in proc 0. Max # of overlaps:       4      26

siesta: E_KS(eV) =             -898.2479

siesta: Atomic forces (eV/Ang):
----------------------------------------
   Tot   -0.000674   -0.000435   -0.000431
----------------------------------------
   Max    2.243249
   Res    1.139761    sqrt( Sum f_i^2 / 3N )
----------------------------------------
   Max    2.243249    constrained

Stress tensor Voigt[x,y,z,yz,xz,xy] (kbar):       -6.68       -0.09        0.79        0.52        1.49        1.09
(Free)E + p*V (eV/cell)     -897.0744
Target enthalpy (eV/cell)     -898.3172

siesta: Stress tensor (static) (eV/Ang**3):
         0.001912    0.000846    0.001038
         0.000846    0.000248    0.000399
         0.001038    0.000399    0.000713

siesta: Pressure (static):         -1.53446670  kBar

siesta: Stress tensor (total) (eV/Ang**3):
        -0.004169    0.000680    0.000928
         0.000680   -0.000054    0.000322
         0.000928    0.000322    0.000494

siesta: Pressure (total):          1.99133543  kBar

siesta: Temp_ion =    8084.115 K

                     ====================================
                        Begin MD step =     15
                     ====================================

outcell: Unit cell vectors (Ang):
       10.000004    0.000000    0.000000
        0.000000   10.000004    0.000000
        0.000000    0.000000   10.000004

outcell: Cell vector modules (Ang)   :   10.000004   10.000004   10.000004
outcell: Cell angles (23,13,12) (deg):     90.0000     90.0000     90.0000
outcell: Cell volume (Ang**3)        :   1000.0012
<dSpData1D:S at geom step 15
  <sparsity:sparsity for geom step 15
    nrows_g=26 nrows=26 sparsity=1.0000 nnzs=676, refcount: 7>
  <dData1D:(new from dSpData1D) n=676, refcount: 1>
refcount: 1>
new_DM -- step:    15
Re-using DM from previous geometries...
Number of DMs in history: 1
 DM extrapolation coefficients: 
1   1.00000
New DM after history re-use:
<dSpData2D:SpM extrapolated using coords
  <sparsity:sparsity for geom step 15
    nrows_g=26 nrows=26 sparsity=1.0000 nnzs=676, refcount: 9>
  <dData2D:(temp array for extrapolation) n=676 m=1, refcount: 1>
refcount: 1>
No. of atoms with KB's overlaping orbs in proc 0. Max # of overlaps:       4      26

InitMesh: MESH = 90 x 90 x 90 = 729000
InitMesh: Mesh cutoff (required, used) =   200.000   223.865 Ry
New grid distribution [1]: sub = 2

        iscf     Eharris(eV)        E_KS(eV)     FreeEng(eV)     dDmax    Ef(eV) dHmax(eV)
   scf:    1     -897.907066     -898.109931     -898.178093  0.074391 -6.456644  0.449508
   scf:    2     -896.016622     -897.467380     -897.489869  0.622704 -6.611612  1.773025
   scf:    3     -898.257900     -898.116721     -898.185636  0.486455 -6.486547  0.154475
   scf:    4     -898.106647     -898.111948     -898.180550  0.017166 -6.485974  0.172583
   scf:    5     -897.556935     -897.966126     -898.018710  0.388286 -6.565281  0.369477
   scf:    6     -898.128563     -898.056538     -898.118401  0.102896 -6.555348  0.243015
   scf:    7     -898.141016     -898.125041     -898.194050  0.172589 -6.560800  0.033477
   scf:    8     -898.114326     -898.120521     -898.188959  0.030782 -6.561093  0.070753
   scf:    9     -898.102812     -898.112535     -898.180090  0.030707 -6.569387  0.108062
   scf:   10     -898.125835     -898.126266     -898.195537  0.089487 -6.570329  0.001474
   scf:   11     -898.126274     -898.126273     -898.195535  0.001617 -6.570448  0.001968
   scf:   12     -898.126218     -898.126255     -898.195534  0.003159 -6.571006  0.002161
   scf:   13     -898.126279     -898.126270     -898.195540  0.001929 -6.570690  0.000384
   scf:   14     -898.126269     -898.126270     -898.195540  0.000100 -6.570712  0.000348

SCF Convergence by DM+H criterion
max |DM_out - DM_in|         :     0.0000995833
max |H_out - H_in|      (eV) :     0.0003482875
SCF cycle converged after 14 iterations

Using DM_out to compute the final energy and forces
No. of atoms with KB's overlaping orbs in proc 0. Max # of overlaps:       4      26

siesta: E_KS(eV) =             -898.1263

siesta: Atomic forces (eV/Ang):
----------------------------------------
   Tot    0.000028    0.000265    0.000389
----------------------------------------
   Max    2.485475
   Res    1.265080    sqrt( Sum f_i^2 / 3N )
----------------------------------------
   Max    2.485475    constrained

Stress tensor Voigt[x,y,z,yz,xz,xy] (kbar):       -7.02        0.01        1.13        0.70        1.78        1.47
(Free)E + p*V (eV/cell)     -896.9739
Target enthalpy (eV/cell)     -898.1955

siesta: Stress tensor (static) (eV/Ang**3):
         0.001528    0.001007    0.001110
         0.001007    0.000269    0.000445
         0.001110    0.000445    0.000808

siesta: Pressure (static):         -1.39109380  kBar

siesta: Stress tensor (total) (eV/Ang**3):
        -0.004379    0.000916    0.001113
         0.000916    0.000008    0.000434
         0.001113    0.000434    0.000706

siesta: Pressure (total):          1.95729966  kBar

siesta: Temp_ion =    7769.778 K

                     ====================================
                        Begin MD step =     16
                     ====================================

outcell: Unit cell vectors (Ang):
       10.000004    0.000000    0.000000
        0.000000   10.000004    0.000000
        0.000000    0.000000   10.000004

outcell: Cell vector modules (Ang)   :   10.000004   10.000004   10.000004
outcell: Cell angles (23,13,12) (deg):     90.0000     90.0000     90.0000
outcell: Cell volume (Ang**3)        :   1000.0012
<dSpData1D:S at geom step 16
  <sparsity:sparsity for geom step 16
    nrows_g=26 nrows=26 sparsity=1.0000 nnzs=676, refcount: 7>
  <dData1D:(new from dSpData1D) n=676, refcount: 1>
refcount: 1>
new_DM -- step:    16
Re-using DM from previous geometries...
Number of DMs in history: 1
 DM extrapolation coefficients: 
1   1.00000
New DM after history re-use:
<dSpData2D:SpM extrapolated using coords
  <sparsity:sparsity for geom step 16
    nrows_g=26 nrows=26 sparsity=1.0000 nnzs=676, refcount: 9>
  <dData2D:(temp array for extrapolation) n=676 m=1, refcount: 1>
refcount: 1>
Note: For starting DM, Qtot, Tr[D*S] =         14.00000000         14.02565257
No. of atoms with KB's overlaping orbs in proc 0. Max # of overlaps:       4      26

InitMesh: MESH = 90 x 90 x 90 = 729000
InitMesh: Mesh cutoff (required, used) =   200.000   223.865 Ry
New grid distribution [1]: sub = 2

        iscf     Eharris(eV)        E_KS(eV)     FreeEng(eV)     dDmax    Ef(eV) dHmax(eV)
   scf:    1     -897.831827     -898.032748     -898.099452  0.095382 -6.801778  0.632224
   scf:    2     -895.135832     -897.160880     -897.169009  0.634193 -6.569969  2.555474
   scf:    3     -898.298462     -898.035385     -898.103243  0.445297 -6.760637  0.291077
   scf:    4     -898.051116     -898.043629     -898.112029  0.016758 -6.761594  0.256283
   scf:    5     -897.735733     -897.979989     -898.039697  0.257401 -6.716260  0.294984
   scf:    6     -897.933027     -897.957219     -898.014495  0.022259 -6.698687  0.313075
   scf:    7     -898.043644     -898.062917     -898.132191  0.214826 -6.687199  0.023466
   scf:    8     -898.061153     -898.063216     -898.132216  0.030025 -6.686036  0.021304
   scf:    9     -898.062634     -898.063508     -898.132756  0.019822 -6.685633  0.010796
   scf:   10     -898.063723     -898.063650     -898.132858  0.004878 -6.685159  0.004717
   scf:   11     -898.063591     -898.063624     -898.132845  0.001631 -6.682289  0.003746
   scf:   12     -898.063689     -898.063670     -898.132862  0.002982 -6.682407  0.001157
   scf:   13     -898.063658     -898.063665     -898.132863  0.000638 -6.682500  0.000971
   scf:   14     -898.063666     -898.063665     -898.132863  0.000119 -6.682405  0.000725

SCF Convergence by DM+H criterion
max |DM_out - DM_in|         :     0.0001185650
max |H_out - H_in|      (eV) :     0.0007247664
SCF cycle converged after 14 iterations

Using DM_out to compute the final energy and forces
[...]
        -0.004055   -0.001359   -0.000898
         0.000756   -0.000898    0.002355

siesta: Pressure (total):         -1.72552027  kBar

siesta: Temp_ion =    7198.397 K

                     ====================================
                        Begin MD step =    299
                     ====================================

outcell: Unit cell vectors (Ang):
       10.000004    0.000000    0.000000
        0.000000   10.000004    0.000000
        0.000000    0.000000   10.000004

outcell: Cell vector modules (Ang)   :   10.000004   10.000004   10.000004
outcell: Cell angles (23,13,12) (deg):     90.0000     90.0000     90.0000
outcell: Cell volume (Ang**3)        :   1000.0012
<dSpData1D:S at geom step 299
  <sparsity:sparsity for geom step 299
    nrows_g=26 nrows=26 sparsity=1.0000 nnzs=676, refcount: 7>
  <dData1D:(new from dSpData1D) n=676, refcount: 1>
refcount: 1>
new_DM -- step:   299
Re-using DM from previous geometries...
Number of DMs in history: 1
 DM extrapolation coefficients: 
1   1.00000
New DM after history re-use:
<dSpData2D:SpM extrapolated using coords
  <sparsity:sparsity for geom step 299
    nrows_g=26 nrows=26 sparsity=1.0000 nnzs=676, refcount: 9>
  <dData2D:(temp array for extrapolation) n=676 m=1, refcount: 1>
refcount: 1>
Note: For starting DM, Qtot, Tr[D*S] =         14.00000000         13.91314540
No. of atoms with KB's overlaping orbs in proc 0. Max # of overlaps:       4      26

InitMesh: MESH = 90 x 90 x 90 = 729000
InitMesh: Mesh cutoff (required, used) =   200.000   223.865 Ry
New grid distribution [1]: sub = 2

        iscf     Eharris(eV)        E_KS(eV)     FreeEng(eV)     dDmax    Ef(eV) dHmax(eV)
   scf:    1     -896.165538     -896.859406     -896.942939  0.406741 -4.648352  2.722310
   scf:    2     -885.833145     -893.787850     -893.787850  0.563257 -6.480133  9.514942
   scf:    3     -898.468291     -896.922156     -896.935235  0.173409 -5.011816  2.467100
   scf:    4     -895.507507     -896.305458     -896.305676  0.117806 -5.518304  4.565779
   scf:    5     -894.180430     -895.335630     -895.335635  0.098605 -5.545568  5.824970
   scf:    6     -891.736216     -896.204343     -896.272402  0.842564 -5.017182  2.936780
   scf:    7     -896.565772     -896.389281     -896.459419  0.069112 -5.008356  2.740051
   scf:    8     -896.895302     -896.653094     -896.724986  0.105492 -5.019004  2.343337
   scf:    9     -897.472078     -897.304225     -897.373050  0.475307 -4.968819  0.679334
   scf:   10     -897.117303     -897.294450     -897.336415  0.227928 -5.059868  0.825668
   scf:   11     -897.306836     -897.300826     -897.343511  0.010111 -5.061733  0.786852
   scf:   12     -897.310125     -897.309017     -897.355123  0.074774 -5.033522  0.594781
   scf:   13     -897.353027     -897.338343     -897.392729  0.096464 -5.040652  0.310950
   scf:   14     -897.348284     -897.347095     -897.403773  0.049965 -5.028317  0.087348
   scf:   15     -897.319203     -897.337272     -897.397404  0.087084 -5.007095  0.096813
   scf:   16     -897.334087     -897.342931     -897.404257  0.083111 -5.026985  0.106231
   scf:   17     -897.340811     -897.343023     -897.406427  0.040469 -5.012419  0.038248
   scf:   18     -897.341480     -897.342889     -897.407347  0.027768 -5.015630  0.052136
   scf:   19     -897.344673     -897.343875     -897.407635  0.010180 -5.016029  0.030762
   scf:   20     -897.344183     -897.344047     -897.407761  0.006008 -5.016692  0.029220
   scf:   21     -897.345247     -897.344795     -897.408149  0.014026 -5.023039  0.007632
   scf:   22     -897.344809     -897.344803     -897.408147  0.000734 -5.022605  0.006588
   scf:   23     -897.344645     -897.344724     -897.408145  0.001114 -5.020454  0.005664
   scf:   24     -897.344767     -897.344746     -897.408150  0.000873 -5.020119  0.005718
   scf:   25     -897.344890     -897.344820     -897.408155  0.001833 -5.020202  0.006566
   scf:   26     -897.345048     -897.344937     -897.408154  0.002418 -5.020356  0.007017
   scf:   27     -897.344967     -897.344953     -897.408153  0.001026 -5.020579  0.006395
   scf:   28     -897.344900     -897.344931     -897.408152  0.002907 -5.020951  0.006091
   scf:   29     -897.344937     -897.344934     -897.408151  0.000383 -5.021062  0.005879
   scf:   30     -897.344932     -897.344934     -897.408155  0.000643 -5.020416  0.006390
   scf:   31     -897.344930     -897.344932     -897.408155  0.000061 -5.020437  0.006411
   scf:   32     -897.345424     -897.345182     -897.408162  0.002377 -5.019057  0.004462
   scf:   33     -897.345192     -897.345187     -897.408163  0.000204 -5.019076  0.004074
   scf:   34     -897.345009     -897.345098     -897.408164  0.000951 -5.019972  0.004626
   scf:   35     -897.345074     -897.345086     -897.408163  0.000372 -5.019979  0.004197
   scf:   36     -897.345093     -897.345090     -897.408165  0.000289 -5.019768  0.003550
   scf:   37     -897.345122     -897.345106     -897.408165  0.000282 -5.019860  0.004042
   scf:   38     -897.345109     -897.345108     -897.408164  0.000450 -5.019816  0.004516
   scf:   39     -897.345006     -897.345058     -897.408165  0.000998 -5.020064  0.004046
   scf:   40     -897.345099     -897.345079     -897.408165  0.000370 -5.019999  0.003888
   scf:   41     -897.345142     -897.345110     -897.408166  0.000301 -5.019879  0.003594
   scf:   42     -897.345214     -897.345162     -897.408168  0.000744 -5.019487  0.002854
   scf:   43     -897.345041     -897.345103     -897.408170  0.001177 -5.019389  0.001906
   scf:   44     -897.345054     -897.345078     -897.408170  0.000368 -5.019431  0.001747
   scf:   45     -897.345091     -897.345085     -897.408170  0.000520 -5.019110  0.001649
   scf:   46     -897.345101     -897.345093     -897.408170  0.000063 -5.018994  0.001540
   scf:   47     -897.345133     -897.345113     -897.408170  0.000316 -5.018610  0.000988
   scf:   48     -897.345122     -897.345118     -897.408170  0.000191 -5.018437  0.001059
   scf:   49     -897.345082     -897.345100     -897.408170  0.000228 -5.018440  0.000983

SCF Convergence by DM+H criterion
max |DM_out - DM_in|         :     0.0002279174
max |H_out - H_in|      (eV) :     0.0009827206
SCF cycle converged after 49 iterations

Using DM_out to compute the final energy and forces
No. of atoms with KB's overlaping orbs in proc 0. Max # of overlaps:       4      26

siesta: E_KS(eV) =             -897.3451

siesta: Atomic forces (eV/Ang):
----------------------------------------
   Tot   -0.006356   -0.007193   -0.002167
----------------------------------------
   Max    3.397306
   Res    1.550922    sqrt( Sum f_i^2 / 3N )
----------------------------------------
   Max    3.397306    constrained

Stress tensor Voigt[x,y,z,yz,xz,xy] (kbar):        3.57        0.35        3.89       -0.99        1.49       -6.76
(Free)E + p*V (eV/cell)     -899.0344
Target enthalpy (eV/cell)     -897.4082

siesta: Stress tensor (static) (eV/Ang**3):
         0.002890   -0.003126    0.000911
        -0.003127    0.005074   -0.000451
         0.000911   -0.000451    0.002497

siesta: Pressure (static):         -5.58699304  kBar

siesta: Stress tensor (total) (eV/Ang**3):
         0.002231   -0.004216    0.000928
        -0.004216    0.000220   -0.000620
         0.000928   -0.000620    0.002428

siesta: Pressure (total):         -2.60545889  kBar

siesta: Temp_ion =    6646.977 K

                     ====================================
                        Begin MD step =    300
                     ====================================

outcell: Unit cell vectors (Ang):
       10.000004    0.000000    0.000000
        0.000000   10.000004    0.000000
        0.000000    0.000000   10.000004

outcell: Cell vector modules (Ang)   :   10.000004   10.000004   10.000004
outcell: Cell angles (23,13,12) (deg):     90.0000     90.0000     90.0000
outcell: Cell volume (Ang**3)        :   1000.0012
<dSpData1D:S at geom step 300
  <sparsity:sparsity for geom step 300
    nrows_g=26 nrows=26 sparsity=1.0000 nnzs=676, refcount: 7>
  <dData1D:(new from dSpData1D) n=676, refcount: 1>
refcount: 1>
new_DM -- step:   300
Re-using DM from previous geometries...
Number of DMs in history: 1
 DM extrapolation coefficients: 
1   1.00000
New DM after history re-use:
<dSpData2D:SpM extrapolated using coords
  <sparsity:sparsity for geom step 300
    nrows_g=26 nrows=26 sparsity=1.0000 nnzs=676, refcount: 9>
  <dData2D:(temp array for extrapolation) n=676 m=1, refcount: 1>
refcount: 1>
Note: For starting DM, Qtot, Tr[D*S] =         14.00000000         13.92821270
No. of atoms with KB's overlaping orbs in proc 0. Max # of overlaps:       4      26

InitMesh: MESH = 90 x 90 x 90 = 729000
InitMesh: Mesh cutoff (required, used) =   200.000   223.865 Ry
New grid distribution [1]: sub = 2

        iscf     Eharris(eV)        E_KS(eV)     FreeEng(eV)     dDmax    Ef(eV) dHmax(eV)
   scf:    1     -891.423884     -895.174853     -895.253022  0.624415 -4.534616  5.851707
   scf:    2     -785.487976     -861.808085     -861.808085  0.951391 -6.722544 27.166412
   scf:    3     -908.775010     -895.807069     -895.807582  0.833020 -5.132579  4.350722
   scf:    4     -877.315802     -891.695830     -891.759999  1.075183 -4.166862 10.293206
   scf:    5     -889.129787     -890.473130     -890.523734  0.265689 -4.055807 11.469153
   scf:    6     -897.652960     -897.021335     -897.067410  1.352165 -4.832974  0.689847
   scf:    7     -896.948579     -897.023415     -897.056097  0.127669 -4.924370  0.825884
   scf:    8     -896.930316     -896.983461     -897.011065  0.053521 -4.950844  1.244550
   scf:    9     -896.904774     -897.024307     -897.075224  0.200908 -4.879726  0.551992
   scf:   10     -897.014589     -897.042246     -897.091614  0.110437 -4.932693  0.661050
   scf:   11     -896.311047     -896.819896     -896.894376  0.344727 -4.882687  1.384979
   scf:   12     -896.931847     -896.879858     -896.955827  0.063235 -4.867872  1.294298
   scf:   13     -896.839318     -896.860448     -896.938383  0.033992 -4.879645  1.254565
   scf:   14     -897.107102     -897.010376     -897.081398  0.145262 -4.892791  0.567881
   scf:   15     -897.075934     -897.059519     -897.125184  0.130588 -4.891709  0.086751
   scf:   16     -897.063111     -897.061532     -897.125982  0.012239 -4.893004  0.041647
   scf:   17     -897.065499     -897.063983     -897.126400  0.016921 -4.894164  0.057234
   scf:   18     -897.062213     -897.063371     -897.126699  0.010258 -4.894756  0.042303
   scf:   19     -897.064162     -897.063783     -897.126728  0.004565 -4.894645  0.030951
   scf:   20     -897.065365     -897.064691     -897.126403  0.011942 -4.891102  0.037577
   scf:   21     -897.063976     -897.064371     -897.126520  0.006636 -4.889759  0.021412
   scf:   22     -897.063020     -897.063801     -897.126626  0.010360 -4.886711  0.019305
   scf:   23     -897.063519     -897.063793     -897.126785  0.012907 -4.884548  0.013308
   scf:   24     -897.063010     -897.063419     -897.126860  0.004023 -4.885029  0.011635
   scf:   25     -897.063604     -897.063516     -897.126876  0.002349 -4.885759  0.008842
   scf:   26     -897.063576     -897.063549     -897.126893  0.001982 -4.886265  0.008542
   scf:   27     -897.063478     -897.063521     -897.126917  0.004138 -4.886355  0.006844
   scf:   28     -897.063540     -897.063531     -897.126915  0.000826 -4.886640  0.006567
   scf:   29     -897.063489     -897.063510     -897.126913  0.001151 -4.887160  0.006918
   scf:   30     -897.062890     -897.063206     -897.126925  0.002887 -4.887630  0.005917
   scf:   31     -897.063158     -897.063182     -897.126927  0.000245 -4.887648  0.005504
   scf:   32     -897.063091     -897.063139     -897.126933  0.001345 -4.887809  0.002385
   scf:   33     -897.063210     -897.063175     -897.126936  0.001281 -4.887850  0.001043
   scf:   34     -897.063174     -897.063175     -897.126936  0.000144 -4.887853  0.000896

SCF Convergence by DM+H criterion
max |DM_out - DM_in|         :     0.0001443859
max |H_out - H_in|      (eV) :     0.0008962968
SCF cycle converged after 34 iterations

Using DM_out to compute the final energy and forces
No. of atoms with KB's overlaping orbs in proc 0. Max # of overlaps:       4      26

siesta: E_KS(eV) =             -897.0632

siesta: Atomic forces (eV/Ang):
----------------------------------------
   Tot    0.000788   -0.002797   -0.003765
----------------------------------------
   Max    3.880014
   Res    1.743622    sqrt( Sum f_i^2 / 3N )
----------------------------------------
   Max    3.880014    constrained

Stress tensor Voigt[x,y,z,yz,xz,xy] (kbar):        3.13        2.87        3.52        0.05        1.21       -5.76
(Free)E + p*V (eV/cell)     -899.1076
Target enthalpy (eV/cell)     -897.1269

siesta: Stress tensor (static) (eV/Ang**3):
         0.002806   -0.002584    0.000750
        -0.002585    0.006089    0.000025
         0.000750    0.000025    0.002202

siesta: Pressure (static):         -5.92654185  kBar

siesta: Stress tensor (total) (eV/Ang**3):
         0.001953   -0.003597    0.000754
        -0.003598    0.001790    0.000034
         0.000754    0.000033    0.002199

siesta: Pressure (total):         -3.17340233  kBar

siesta: Temp_ion =    5937.830 K

coxmol: Writing XMOL coordinates into file xoc.xyz                                                                                                                                                                                                                             

siesta: Program's energy decomposition (eV):
siesta: Ebs     =      -168.992510
siesta: Eions   =      1581.702395
siesta: Ena     =       339.259636
siesta: Ekin    =       638.920002
siesta: Enl     =       -93.280256
siesta: Eso     =         0.000000
siesta: Edftu   =         0.000000
siesta: DEna    =         4.044927
siesta: DUscf   =         1.408086
siesta: DUext   =         0.000000
siesta: Ex      =      -192.000255
siesta: Ec      =       -13.712919
siesta: Exc     =      -205.713174
siesta: EbV     =         0.000000
siesta: eta*DQ  =         0.000000
siesta: Emadel  =         0.000000
siesta: Emeta   =         0.000000
siesta: Emolmec =         0.000000
siesta: Ekinion =         2.302572
siesta: Eharris =      -894.760602
siesta: Etot    =      -894.760603
siesta: FreeEng =      -894.824365

siesta: Final energy (eV):
siesta:  Band Struct. =    -168.992510
siesta:       Kinetic =     638.920002
siesta:       Hartree =     867.461546
siesta:         Edftu =       0.000000
siesta:       Eso     =       0.000000
siesta:    Ext. field =       0.000000
siesta:         Exch. =    -192.000255
siesta:         Corr. =     -13.712919
siesta:     Bulk bias =       0.000000
siesta:   Exch.-corr. =    -205.713174
siesta:  Ion-electron =   -2280.654755
siesta:       Ion-ion =      82.923207
siesta:       Ekinion =       2.302572
siesta: D3 dispersion =       0.000000
siesta:         Total =    -894.760603
siesta:         Fermi =      -4.887853

siesta: Atomic forces (eV/Ang):
siesta:      1   -0.946066    0.932724    0.557040
siesta:      2    0.919272    3.172585    0.962776
siesta:      3    1.244485   -3.880014    0.517515
siesta:      4   -1.216902   -0.228092   -2.041095
siesta: ----------------------------------------
siesta:    Tot    0.000788   -0.002797   -0.003765

siesta: Stress tensor (static) (eV/Ang**3):
siesta:     0.002806   -0.002584    0.000750
siesta:    -0.002585    0.006089    0.000025
siesta:     0.000750    0.000025    0.002202

siesta: Cell volume =       1000.001196 Ang**3

siesta: Pressure (static):
siesta:                Solid            Molecule  Units
siesta:          -0.00004029         -0.00000012  Ry/Bohr**3
siesta:          -0.00369906         -0.00001074  eV/Ang**3
siesta:          -5.92654185         -0.01720974  kBar
(Free)E+ p_basis*V_orbitals  =        -896.368227
(Free)Eharris+ p_basis*V_orbitals  =        -896.368227

siesta: Electric dipole (a.u.)  =   -0.285543    0.785620    0.439954
siesta: Electric dipole (Debye) =   -0.725777    1.996848    1.118251

cite: Please see "xoc.bib" for an exhaustive BiBTeX file.
cite: Please clearly indicate Siesta version in published work: 5.2.1
cite: This calculation has made use of the following articles
cite: which are encouraged to be cited in a published work.
        Primary SIESTA paper
          DOI: www.doi.org/10.1088/0953-8984/14/11/302


timer: Elapsed wall time (sec) =     697.195
timer: CPU execution times (sec):

Routine            Calls   Time/call    Tot.time        %
siesta                 1    3062.548    3062.548   100.00
Setup                  1       1.089       1.089     0.04
bands                  1       0.000       0.000     0.00
KSV_init               1       0.000       0.000     0.00
IterGeom             300      10.205    3061.459    99.96
geom_init            300       0.190      57.052     1.86
state_init           300       0.001       0.169     0.01
hsparse              300       0.000       0.009     0.00
overlap              300       0.000       0.100     0.00
Setup_H0             300       0.088      26.272     0.86
naefs                600       0.000       0.011     0.00
dnaefs               600       0.000       0.007     0.00
MolMec               600       0.000       0.000     0.00
kinefsm              600       0.000       0.147     0.00
nlefsm               600       0.001       0.776     0.03
DHSCF_Init           300       0.085      25.592     0.84
DHSCF1               300       0.008       2.290     0.07
InitMesh             300       0.008       2.286     0.07
INITMESH             300       0.000       0.001     0.00
DHSCF2               300       0.078      23.302     0.76
REMESH               300       0.003       0.897     0.03
REORD              16248       0.002      29.737     0.97
PHION                300       0.038      11.280     0.37
COMM_BSC           24396       0.002      37.956     1.24
POISON              6174       0.145     896.834    29.28
fft                12348       0.052     642.059    20.96
setup_H             5574       0.534    2977.614    97.23
DHSCF               5874       0.515    3024.194    98.75
DHSCF3              5874       0.511    3004.250    98.10
rhoofd              5874       0.034     198.293     6.47
XC                  5874       0.277    1627.945    53.16
GXC-CellXC          5874       0.265    1556.376    50.82
gridxc@cellXC       5874       0.265    1556.248    50.82
vmat                5874       0.004      24.368     0.80
IterSCF             5274       0.560    2953.392    96.44
compute_dm          5274       0.001       5.673     0.19
diagon              5274       0.001       5.600     0.18
r-eigvec            5274       0.001       4.863     0.16
r-buildHS           5274       0.000       0.010     0.00
rdiag               5274       0.001       4.829     0.16
rdiag1              5274       0.000       0.025     0.00
rdiag2              5274       0.000       0.061     0.00
rdiag3              5274       0.001       4.472     0.15
rdiag4              5274       0.000       0.196     0.01
r-buildD            5274       0.000       0.504     0.02
MIXER               4974       0.000       0.131     0.00
PostSCF              300       0.169      50.824     1.66
FINAL_HF             300       0.169      50.819     1.66
DHSCF4               300       0.066      19.928     0.65
dfscf                300       0.049      14.841     0.48
overfsm              300       0.000       0.049     0.00
writeHSX             300       0.000       0.027     0.00
state_analysis       300       0.000       0.036     0.00
siesta_move          300       0.000       0.074     0.00
Analysis               1       0.000       0.000     0.00
optical                1       0.000       0.000     0.00
  

>> End of run:  26-MAR-2025  17:35:20
Job completed
Job completed
